
     Program PWSCF v.7.4.1 starts on  8Nov2025 at 11:39:16 

     This program is part of the open-source Quantum ESPRESSO suite
     for quantum simulation of materials; please cite
         "P. Giannozzi et al., J. Phys.:Condens. Matter 21 395502 (2009);
         "P. Giannozzi et al., J. Phys.:Condens. Matter 29 465901 (2017);
         "P. Giannozzi et al., J. Chem. Phys. 152 154105 (2020);
          URL http://www.quantum-espresso.org", 
     in publications or presentations arising from this work. More details at
     http://www.quantum-espresso.org/quote

     Parallel version (MPI), running on     8 processors

     MPI processes distributed on     1 nodes
     9868 MiB available memory on the printing compute node when the environment starts

     Reading input from bands.in

     Current dimensions of program PWSCF are:
     Max number of different atomic species (ntypx) = 10
     Max number of k-points (npk) =  40000
     Max angular momentum in pseudopotentials (lmaxx) =  4
     file Ca.pbe-spn-kjpaw_psl.1.0.0.UPF: wavefunction(s)  3S renormalized
     file Pd.pbe-spn-kjpaw_psl.1.0.0.UPF: wavefunction(s)  4S 5S 4D renormalized

     Atomic positions and unit cell read from directory:
     ./tmp/capd2as2.save/

     Message from routine setup:
     using ibrav=0 with symmetry is DISCOURAGED, use correct ibrav instead

     K-points division:     npool     =       4
     R & G space division:  proc/nbgrp/npool/nimage =       2
     Subspace diagonalization in iterative solution of the eigenvalue problem:
     a serial algorithm will be used


     Parallelization info
     --------------------
     sticks:   dense  smooth     PW     G-vecs:    dense   smooth      PW
     Min        2483    1234    394                71748    25323    4642
     Max        2484    1235    395                71749    25324    4643
     Sum        4967    2469    789               143497    50647    9285

     Using Slab Decomposition



     bravais-lattice index     =            0
     lattice parameter (alat)  =      11.2488  a.u.
     unit-cell volume          =     640.9372 (a.u.)^3
     number of atoms/cell      =            5
     number of atomic types    =            3
     number of electrons       =        56.00
     number of Kohn-Sham states=          100
     kinetic-energy cutoff     =      70.0000  Ry
     charge density cutoff     =     560.0000  Ry
     Exchange-correlation= SLA  PW   PBX  PBC
                           (   1   4   3   4   0   0   0)

     celldm(1)=  11.248812  celldm(2)=   0.000000  celldm(3)=   0.000000
     celldm(4)=   0.000000  celldm(5)=   0.000000  celldm(6)=   0.000000

     crystal axes: (cart. coord. in units of alat)
               a(1) = (  -0.362008   0.362008   0.859011 )  
               a(2) = (   0.362008  -0.362008   0.859011 )  
               a(3) = (   0.362008   0.362008  -0.859011 )  

     reciprocal axes: (cart. coord. in units 2 pi/alat)
               b(1) = (  0.000000  1.381184  0.582065 )  
               b(2) = (  1.381184  0.000000  0.582065 )  
               b(3) = (  1.381184  1.381184  0.000000 )  


     PseudoPot. # 1 for As read from file:
     ./pseudopotential/As.pbe-n-kjpaw_psl.1.0.0.UPF
     MD5 check sum: 21b474db91924651be503153fb2dbf55
     Pseudo is Projector augmented-wave + core cor, Zval =  5.0
     Generated using &quot;atomic&quot; code by A. Dal Corso  v.6.3
     Shape of augmentation charge: PSQ
     Using radial grid of 1209 points,  4 beta functions with: 
                l(1) =   0
                l(2) =   0
                l(3) =   1
                l(4) =   1
     Q(r) pseudized with 0 coefficients 


     PseudoPot. # 2 for Ca read from file:
     ./pseudopotential/Ca.pbe-spn-kjpaw_psl.1.0.0.UPF
     MD5 check sum: 1e11ab70c77b02a7d7d676f41d47b751
     Pseudo is Projector augmented-wave + core cor, Zval = 10.0
     Generated using &quot;atomic&quot; code by A. Dal Corso  v.6.4.1
     Shape of augmentation charge: PSQ
     Using radial grid of 1169 points,  6 beta functions with: 
                l(1) =   0
                l(2) =   0
                l(3) =   1
                l(4) =   1
                l(5) =   2
                l(6) =   2
     Q(r) pseudized with 0 coefficients 


     PseudoPot. # 3 for Pd read from file:
     ./pseudopotential/Pd.pbe-spn-kjpaw_psl.1.0.0.UPF
     MD5 check sum: 06b619ac5e4bb0d62f7b469c9bdd1b99
     Pseudo is Projector augmented-wave + core cor, Zval = 18.0
     Generated using &quot;atomic&quot; code by A. Dal Corso  v.6.3
     Shape of augmentation charge: PSQ
     Using radial grid of 1235 points,  6 beta functions with: 
                l(1) =   0
                l(2) =   0
                l(3) =   1
                l(4) =   1
                l(5) =   2
                l(6) =   2
     Q(r) pseudized with 0 coefficients 


     atomic species   valence    mass     pseudopotential
     As                5.00    74.92200     As( 1.00)
     Ca               10.00    40.07800     Ca( 1.00)
     Pd               18.00   106.42000     Pd( 1.00)

     16 Sym. Ops., with inversion, found


                                    s                        frac. trans.

      isym =  1     identity                                     

 cryst.   s( 1) = (     1          0          0      )
                  (     0          1          0      )
                  (     0          0          1      )

 cart.    s( 1) = (  1.0000000  0.0000000  0.0000000 )
                  (  0.0000000  1.0000000  0.0000000 )
                  (  0.0000000  0.0000000  1.0000000 )


      isym =  2     180 deg rotation - cart. axis [0,0,1]        

 cryst.   s( 2) = (     0          1          0      )
                  (     1          0          0      )
                  (    -1         -1         -1      )

 cart.    s( 2) = ( -1.0000000  0.0000000  0.0000000 )
                  (  0.0000000 -1.0000000  0.0000000 )
                  (  0.0000000  0.0000000  1.0000000 )


      isym =  3     180 deg rotation - cart. axis [0,1,0]        

 cryst.   s( 3) = (     0          0          1      )
                  (    -1         -1         -1      )
                  (     1          0          0      )

 cart.    s( 3) = ( -1.0000000  0.0000000  0.0000000 )
                  (  0.0000000  1.0000000  0.0000000 )
                  (  0.0000000  0.0000000 -1.0000000 )


      isym =  4     180 deg rotation - cart. axis [1,0,0]        

 cryst.   s( 4) = (    -1         -1         -1      )
                  (     0          0          1      )
                  (     0          1          0      )

 cart.    s( 4) = (  1.0000000  0.0000000  0.0000000 )
                  (  0.0000000 -1.0000000  0.0000000 )
                  (  0.0000000  0.0000000 -1.0000000 )


      isym =  5     180 deg rotation - cart. axis [1,1,0]        

 cryst.   s( 5) = (    -1          0          0      )
                  (     0         -1          0      )
                  (     1          1          1      )

 cart.    s( 5) = (  0.0000000  1.0000000  0.0000000 )
                  (  1.0000000  0.0000000  0.0000000 )
                  (  0.0000000  0.0000000 -1.0000000 )


      isym =  6     180 deg rotation - cart. axis [1,-1,0]       

 cryst.   s( 6) = (     0         -1          0      )
                  (    -1          0          0      )
                  (     0          0         -1      )

 cart.    s( 6) = (  0.0000000 -1.0000000  0.0000000 )
                  ( -1.0000000  0.0000000  0.0000000 )
                  (  0.0000000  0.0000000 -1.0000000 )


      isym =  7      90 deg rotation - cart. axis [0,0,-1]       

 cryst.   s( 7) = (     1          1          1      )
                  (     0          0         -1      )
                  (    -1          0          0      )

 cart.    s( 7) = (  0.0000000  1.0000000  0.0000000 )
                  ( -1.0000000  0.0000000  0.0000000 )
                  (  0.0000000  0.0000000  1.0000000 )


      isym =  8      90 deg rotation - cart. axis [0,0,1]        

 cryst.   s( 8) = (     0          0         -1      )
                  (     1          1          1      )
                  (     0         -1          0      )

 cart.    s( 8) = (  0.0000000 -1.0000000  0.0000000 )
                  (  1.0000000  0.0000000  0.0000000 )
                  (  0.0000000  0.0000000  1.0000000 )


      isym =  9     inversion                                    

 cryst.   s( 9) = (    -1          0          0      )
                  (     0         -1          0      )
                  (     0          0         -1      )

 cart.    s( 9) = ( -1.0000000  0.0000000  0.0000000 )
                  (  0.0000000 -1.0000000  0.0000000 )
                  (  0.0000000  0.0000000 -1.0000000 )


      isym = 10     inv. 180 deg rotation - cart. axis [0,0,1]   

 cryst.   s(10) = (     0         -1          0      )
                  (    -1          0          0      )
                  (     1          1          1      )

 cart.    s(10) = (  1.0000000  0.0000000  0.0000000 )
                  (  0.0000000  1.0000000  0.0000000 )
                  (  0.0000000  0.0000000 -1.0000000 )


      isym = 11     inv. 180 deg rotation - cart. axis [0,1,0]   

 cryst.   s(11) = (     0          0         -1      )
                  (     1          1          1      )
                  (    -1          0          0      )

 cart.    s(11) = (  1.0000000  0.0000000  0.0000000 )
                  (  0.0000000 -1.0000000  0.0000000 )
                  (  0.0000000  0.0000000  1.0000000 )


      isym = 12     inv. 180 deg rotation - cart. axis [1,0,0]   

 cryst.   s(12) = (     1          1          1      )
                  (     0          0         -1      )
                  (     0         -1          0      )

 cart.    s(12) = ( -1.0000000  0.0000000  0.0000000 )
                  (  0.0000000  1.0000000  0.0000000 )
                  (  0.0000000  0.0000000  1.0000000 )


      isym = 13     inv. 180 deg rotation - cart. axis [1,1,0]   

 cryst.   s(13) = (     1          0          0      )
                  (     0          1          0      )
                  (    -1         -1         -1      )

 cart.    s(13) = (  0.0000000 -1.0000000  0.0000000 )
                  ( -1.0000000  0.0000000  0.0000000 )
                  (  0.0000000  0.0000000  1.0000000 )


      isym = 14     inv. 180 deg rotation - cart. axis [1,-1,0]  

 cryst.   s(14) = (     0          1          0      )
                  (     1          0          0      )
                  (     0          0          1      )

 cart.    s(14) = (  0.0000000  1.0000000  0.0000000 )
                  (  1.0000000  0.0000000  0.0000000 )
                  (  0.0000000  0.0000000  1.0000000 )


      isym = 15     inv.  90 deg rotation - cart. axis [0,0,-1]  

 cryst.   s(15) = (    -1         -1         -1      )
                  (     0          0          1      )
                  (     1          0          0      )

 cart.    s(15) = (  0.0000000 -1.0000000  0.0000000 )
                  (  1.0000000  0.0000000  0.0000000 )
                  (  0.0000000  0.0000000 -1.0000000 )


      isym = 16     inv.  90 deg rotation - cart. axis [0,0,1]   

 cryst.   s(16) = (     0          0          1      )
                  (    -1         -1         -1      )
                  (     0          1          0      )

 cart.    s(16) = (  0.0000000  1.0000000  0.0000000 )
                  ( -1.0000000  0.0000000  0.0000000 )
                  (  0.0000000  0.0000000 -1.0000000 )


   Cartesian axes

     site n.     atom                  positions (alat units)
         1        As     tau(   1) = (   0.0000000   0.0000000   0.6524144  )
         2        As     tau(   2) = (   0.3620082   0.3620082   0.2065968  )
         3        Ca     tau(   3) = (   0.0000000   0.0000000   0.0000000  )
         4        Pd     tau(   4) = (  -0.0000000   0.3620082   0.4295056  )
         5        Pd     tau(   5) = (   0.3620082  -0.0000000   0.4295056  )

   Crystallographic axes

     site n.     atom                  positions (cryst. coord.)
         1        As     tau(   1) = (  0.3797473  0.3797473  0.0000000  )
         2        As     tau(   2) = (  0.6202527  0.6202527  1.0000000  )
         3        Ca     tau(   3) = (  0.0000000  0.0000000  0.0000000  )
         4        Pd     tau(   4) = (  0.7500000  0.2500000  0.5000000  )
         5        Pd     tau(   5) = (  0.2500000  0.7500000  0.5000000  )

     number of k points=   701
                       cart. coord. in units 2pi/alat
        k(    1) = (   0.0000000   0.0000000   0.0000000), wk =   0.0028531
        k(    2) = (   0.0069059   0.0000000   0.0029103), wk =   0.0028531
        k(    3) = (   0.0138118   0.0000000   0.0058206), wk =   0.0028531
        k(    4) = (   0.0207178   0.0000000   0.0087310), wk =   0.0028531
        k(    5) = (   0.0276237   0.0000000   0.0116413), wk =   0.0028531
        k(    6) = (   0.0345296   0.0000000   0.0145516), wk =   0.0028531
        k(    7) = (   0.0414355   0.0000000   0.0174619), wk =   0.0028531
        k(    8) = (   0.0483415   0.0000000   0.0203723), wk =   0.0028531
        k(    9) = (   0.0552474   0.0000000   0.0232826), wk =   0.0028531
        k(   10) = (   0.0621533   0.0000000   0.0261929), wk =   0.0028531
        k(   11) = (   0.0690592   0.0000000   0.0291032), wk =   0.0028531
        k(   12) = (   0.0759651   0.0000000   0.0320136), wk =   0.0028531
        k(   13) = (   0.0828711   0.0000000   0.0349239), wk =   0.0028531
        k(   14) = (   0.0897770   0.0000000   0.0378342), wk =   0.0028531
        k(   15) = (   0.0966829   0.0000000   0.0407445), wk =   0.0028531
        k(   16) = (   0.1035888   0.0000000   0.0436548), wk =   0.0028531
        k(   17) = (   0.1104947   0.0000000   0.0465652), wk =   0.0028531
        k(   18) = (   0.1174007   0.0000000   0.0494755), wk =   0.0028531
        k(   19) = (   0.1243066   0.0000000   0.0523858), wk =   0.0028531
        k(   20) = (   0.1312125   0.0000000   0.0552961), wk =   0.0028531
        k(   21) = (   0.1381184   0.0000000   0.0582065), wk =   0.0028531
        k(   22) = (   0.1450244   0.0000000   0.0611168), wk =   0.0028531
        k(   23) = (   0.1519303   0.0000000   0.0640271), wk =   0.0028531
        k(   24) = (   0.1588362   0.0000000   0.0669374), wk =   0.0028531
        k(   25) = (   0.1657421   0.0000000   0.0698478), wk =   0.0028531
        k(   26) = (   0.1726480   0.0000000   0.0727581), wk =   0.0028531
        k(   27) = (   0.1795540   0.0000000   0.0756684), wk =   0.0028531
        k(   28) = (   0.1864599   0.0000000   0.0785787), wk =   0.0028531
        k(   29) = (   0.1933658   0.0000000   0.0814890), wk =   0.0028531
        k(   30) = (   0.2002717   0.0000000   0.0843994), wk =   0.0028531
        k(   31) = (   0.2071776   0.0000000   0.0873097), wk =   0.0028531
        k(   32) = (   0.2140836   0.0000000   0.0902200), wk =   0.0028531
        k(   33) = (   0.2209895   0.0000000   0.0931303), wk =   0.0028531
        k(   34) = (   0.2278954   0.0000000   0.0960407), wk =   0.0028531
        k(   35) = (   0.2348013   0.0000000   0.0989510), wk =   0.0028531
        k(   36) = (   0.2417073   0.0000000   0.1018613), wk =   0.0028531
        k(   37) = (   0.2486132   0.0000000   0.1047716), wk =   0.0028531
        k(   38) = (   0.2555191   0.0000000   0.1076820), wk =   0.0028531
        k(   39) = (   0.2624250   0.0000000   0.1105923), wk =   0.0028531
        k(   40) = (   0.2693309   0.0000000   0.1135026), wk =   0.0028531
        k(   41) = (   0.2762369   0.0000000   0.1164129), wk =   0.0028531
        k(   42) = (   0.2831428   0.0000000   0.1193232), wk =   0.0028531
        k(   43) = (   0.2900487   0.0000000   0.1222336), wk =   0.0028531
        k(   44) = (   0.2969546   0.0000000   0.1251439), wk =   0.0028531
        k(   45) = (   0.3038605   0.0000000   0.1280542), wk =   0.0028531
        k(   46) = (   0.3107665   0.0000000   0.1309645), wk =   0.0028531
        k(   47) = (   0.3176724   0.0000000   0.1338749), wk =   0.0028531
        k(   48) = (   0.3245783   0.0000000   0.1367852), wk =   0.0028531
        k(   49) = (   0.3314842   0.0000000   0.1396955), wk =   0.0028531
        k(   50) = (   0.3383902   0.0000000   0.1426058), wk =   0.0028531
        k(   51) = (   0.3452961   0.0000000   0.1455162), wk =   0.0028531
        k(   52) = (   0.3522020   0.0000000   0.1484265), wk =   0.0028531
        k(   53) = (   0.3591079   0.0000000   0.1513368), wk =   0.0028531
        k(   54) = (   0.3660138   0.0000000   0.1542471), wk =   0.0028531
        k(   55) = (   0.3729198   0.0000000   0.1571574), wk =   0.0028531
        k(   56) = (   0.3798257   0.0000000   0.1600678), wk =   0.0028531
        k(   57) = (   0.3867316   0.0000000   0.1629781), wk =   0.0028531
        k(   58) = (   0.3936375   0.0000000   0.1658884), wk =   0.0028531
        k(   59) = (   0.4005434   0.0000000   0.1687987), wk =   0.0028531
        k(   60) = (   0.4074494   0.0000000   0.1717091), wk =   0.0028531
        k(   61) = (   0.4143553   0.0000000   0.1746194), wk =   0.0028531
        k(   62) = (   0.4212612   0.0000000   0.1775297), wk =   0.0028531
        k(   63) = (   0.4281671   0.0000000   0.1804400), wk =   0.0028531
        k(   64) = (   0.4350731   0.0000000   0.1833504), wk =   0.0028531
        k(   65) = (   0.4419790   0.0000000   0.1862607), wk =   0.0028531
        k(   66) = (   0.4488849   0.0000000   0.1891710), wk =   0.0028531
        k(   67) = (   0.4557908   0.0000000   0.1920813), wk =   0.0028531
        k(   68) = (   0.4626967   0.0000000   0.1949916), wk =   0.0028531
        k(   69) = (   0.4696027   0.0000000   0.1979020), wk =   0.0028531
        k(   70) = (   0.4765086   0.0000000   0.2008123), wk =   0.0028531
        k(   71) = (   0.4834145   0.0000000   0.2037226), wk =   0.0028531
        k(   72) = (   0.4903204   0.0000000   0.2066329), wk =   0.0028531
        k(   73) = (   0.4972263   0.0000000   0.2095433), wk =   0.0028531
        k(   74) = (   0.5041323   0.0000000   0.2124536), wk =   0.0028531
        k(   75) = (   0.5110382   0.0000000   0.2153639), wk =   0.0028531
        k(   76) = (   0.5179441   0.0000000   0.2182742), wk =   0.0028531
        k(   77) = (   0.5248500   0.0000000   0.2211846), wk =   0.0028531
        k(   78) = (   0.5317560   0.0000000   0.2240949), wk =   0.0028531
        k(   79) = (   0.5386619   0.0000000   0.2270052), wk =   0.0028531
        k(   80) = (   0.5455678   0.0000000   0.2299155), wk =   0.0028531
        k(   81) = (   0.5524737   0.0000000   0.2328258), wk =   0.0028531
        k(   82) = (   0.5593796   0.0000000   0.2357362), wk =   0.0028531
        k(   83) = (   0.5662856   0.0000000   0.2386465), wk =   0.0028531
        k(   84) = (   0.5731915   0.0000000   0.2415568), wk =   0.0028531
        k(   85) = (   0.5800974   0.0000000   0.2444671), wk =   0.0028531
        k(   86) = (   0.5870033   0.0000000   0.2473775), wk =   0.0028531
        k(   87) = (   0.5939092   0.0000000   0.2502878), wk =   0.0028531
        k(   88) = (   0.6008152   0.0000000   0.2531981), wk =   0.0028531
        k(   89) = (   0.6077211   0.0000000   0.2561084), wk =   0.0028531
        k(   90) = (   0.6146270   0.0000000   0.2590188), wk =   0.0028531
        k(   91) = (   0.6215329   0.0000000   0.2619291), wk =   0.0028531
        k(   92) = (   0.6284389   0.0000000   0.2648394), wk =   0.0028531
        k(   93) = (   0.6353448   0.0000000   0.2677497), wk =   0.0028531
        k(   94) = (   0.6422507   0.0000000   0.2706600), wk =   0.0028531
        k(   95) = (   0.6491566   0.0000000   0.2735704), wk =   0.0028531
        k(   96) = (   0.6560625   0.0000000   0.2764807), wk =   0.0028531
        k(   97) = (   0.6629685   0.0000000   0.2793910), wk =   0.0028531
        k(   98) = (   0.6698744   0.0000000   0.2823013), wk =   0.0028531
        k(   99) = (   0.6767803   0.0000000   0.2852117), wk =   0.0028531
        k(  100) = (   0.6836862   0.0000000   0.2881220), wk =   0.0028531
        k(  101) = (   0.6905921   0.0000000   0.2910323), wk =   0.0028531
        k(  102) = (   0.6905921   0.0069059   0.2939426), wk =   0.0028531
        k(  103) = (   0.6905921   0.0138118   0.2968530), wk =   0.0028531
        k(  104) = (   0.6905921   0.0207178   0.2997633), wk =   0.0028531
        k(  105) = (   0.6905921   0.0276237   0.3026736), wk =   0.0028531
        k(  106) = (   0.6905921   0.0345296   0.3055839), wk =   0.0028531
        k(  107) = (   0.6905921   0.0414355   0.3084942), wk =   0.0028531
        k(  108) = (   0.6905921   0.0483415   0.3114046), wk =   0.0028531
        k(  109) = (   0.6905921   0.0552474   0.3143149), wk =   0.0028531
        k(  110) = (   0.6905921   0.0621533   0.3172252), wk =   0.0028531
        k(  111) = (   0.6905921   0.0690592   0.3201355), wk =   0.0028531
        k(  112) = (   0.6905921   0.0759651   0.3230459), wk =   0.0028531
        k(  113) = (   0.6905921   0.0828711   0.3259562), wk =   0.0028531
        k(  114) = (   0.6905921   0.0897770   0.3288665), wk =   0.0028531
        k(  115) = (   0.6905921   0.0966829   0.3317768), wk =   0.0028531
        k(  116) = (   0.6905921   0.1035888   0.3346872), wk =   0.0028531
        k(  117) = (   0.6905921   0.1104947   0.3375975), wk =   0.0028531
        k(  118) = (   0.6905921   0.1174007   0.3405078), wk =   0.0028531
        k(  119) = (   0.6905921   0.1243066   0.3434181), wk =   0.0028531
        k(  120) = (   0.6905921   0.1312125   0.3463284), wk =   0.0028531
        k(  121) = (   0.6905921   0.1381184   0.3492388), wk =   0.0028531
        k(  122) = (   0.6905921   0.1450244   0.3521491), wk =   0.0028531
        k(  123) = (   0.6905921   0.1519303   0.3550594), wk =   0.0028531
        k(  124) = (   0.6905921   0.1588362   0.3579697), wk =   0.0028531
        k(  125) = (   0.6905921   0.1657421   0.3608801), wk =   0.0028531
        k(  126) = (   0.6905921   0.1726480   0.3637904), wk =   0.0028531
        k(  127) = (   0.6905921   0.1795540   0.3667007), wk =   0.0028531
        k(  128) = (   0.6905921   0.1864599   0.3696110), wk =   0.0028531
        k(  129) = (   0.6905921   0.1933658   0.3725214), wk =   0.0028531
        k(  130) = (   0.6905921   0.2002717   0.3754317), wk =   0.0028531
        k(  131) = (   0.6905921   0.2071776   0.3783420), wk =   0.0028531
        k(  132) = (   0.6905921   0.2140836   0.3812523), wk =   0.0028531
        k(  133) = (   0.6905921   0.2209895   0.3841626), wk =   0.0028531
        k(  134) = (   0.6905921   0.2278954   0.3870730), wk =   0.0028531
        k(  135) = (   0.6905921   0.2348013   0.3899833), wk =   0.0028531
        k(  136) = (   0.6905921   0.2417073   0.3928936), wk =   0.0028531
        k(  137) = (   0.6905921   0.2486132   0.3958039), wk =   0.0028531
        k(  138) = (   0.6905921   0.2555191   0.3987143), wk =   0.0028531
        k(  139) = (   0.6905921   0.2624250   0.4016246), wk =   0.0028531
        k(  140) = (   0.6905921   0.2693309   0.4045349), wk =   0.0028531
        k(  141) = (   0.6905921   0.2762369   0.4074452), wk =   0.0028531
        k(  142) = (   0.6905921   0.2831428   0.4103556), wk =   0.0028531
        k(  143) = (   0.6905921   0.2900487   0.4132659), wk =   0.0028531
        k(  144) = (   0.6905921   0.2969546   0.4161762), wk =   0.0028531
        k(  145) = (   0.6905921   0.3038605   0.4190865), wk =   0.0028531
        k(  146) = (   0.6905921   0.3107665   0.4219968), wk =   0.0028531
        k(  147) = (   0.6905921   0.3176724   0.4249072), wk =   0.0028531
        k(  148) = (   0.6905921   0.3245783   0.4278175), wk =   0.0028531
        k(  149) = (   0.6905921   0.3314842   0.4307278), wk =   0.0028531
        k(  150) = (   0.6905921   0.3383902   0.4336381), wk =   0.0028531
        k(  151) = (   0.6905921   0.3452961   0.4365485), wk =   0.0028531
        k(  152) = (   0.6905921   0.3522020   0.4394588), wk =   0.0028531
        k(  153) = (   0.6905921   0.3591079   0.4423691), wk =   0.0028531
        k(  154) = (   0.6905921   0.3660138   0.4452794), wk =   0.0028531
        k(  155) = (   0.6905921   0.3729198   0.4481898), wk =   0.0028531
        k(  156) = (   0.6905921   0.3798257   0.4511001), wk =   0.0028531
        k(  157) = (   0.6905921   0.3867316   0.4540104), wk =   0.0028531
        k(  158) = (   0.6905921   0.3936375   0.4569207), wk =   0.0028531
        k(  159) = (   0.6905921   0.4005434   0.4598310), wk =   0.0028531
        k(  160) = (   0.6905921   0.4074494   0.4627414), wk =   0.0028531
        k(  161) = (   0.6905921   0.4143553   0.4656517), wk =   0.0028531
        k(  162) = (   0.6905921   0.4212612   0.4685620), wk =   0.0028531
        k(  163) = (   0.6905921   0.4281671   0.4714723), wk =   0.0028531
        k(  164) = (   0.6905921   0.4350731   0.4743827), wk =   0.0028531
        k(  165) = (   0.6905921   0.4419790   0.4772930), wk =   0.0028531
        k(  166) = (   0.6905921   0.4488849   0.4802033), wk =   0.0028531
        k(  167) = (   0.6905921   0.4557908   0.4831136), wk =   0.0028531
        k(  168) = (   0.6905921   0.4626967   0.4860240), wk =   0.0028531
        k(  169) = (   0.6905921   0.4696027   0.4889343), wk =   0.0028531
        k(  170) = (   0.6905921   0.4765086   0.4918446), wk =   0.0028531
        k(  171) = (   0.6905921   0.4834145   0.4947549), wk =   0.0028531
        k(  172) = (   0.6905921   0.4903204   0.4976652), wk =   0.0028531
        k(  173) = (   0.6905921   0.4972263   0.5005756), wk =   0.0028531
        k(  174) = (   0.6905921   0.5041323   0.5034859), wk =   0.0028531
        k(  175) = (   0.6905921   0.5110382   0.5063962), wk =   0.0028531
        k(  176) = (   0.6905921   0.5179441   0.5093065), wk =   0.0028531
        k(  177) = (   0.6905921   0.5248500   0.5122169), wk =   0.0028531
        k(  178) = (   0.6905921   0.5317560   0.5151272), wk =   0.0028531
        k(  179) = (   0.6905921   0.5386619   0.5180375), wk =   0.0028531
        k(  180) = (   0.6905921   0.5455678   0.5209478), wk =   0.0028531
        k(  181) = (   0.6905921   0.5524737   0.5238582), wk =   0.0028531
        k(  182) = (   0.6905921   0.5593796   0.5267685), wk =   0.0028531
        k(  183) = (   0.6905921   0.5662856   0.5296788), wk =   0.0028531
        k(  184) = (   0.6905921   0.5731915   0.5325891), wk =   0.0028531
        k(  185) = (   0.6905921   0.5800974   0.5354994), wk =   0.0028531
        k(  186) = (   0.6905921   0.5870033   0.5384098), wk =   0.0028531
        k(  187) = (   0.6905921   0.5939092   0.5413201), wk =   0.0028531
        k(  188) = (   0.6905921   0.6008152   0.5442304), wk =   0.0028531
        k(  189) = (   0.6905921   0.6077211   0.5471407), wk =   0.0028531
        k(  190) = (   0.6905921   0.6146270   0.5500511), wk =   0.0028531
        k(  191) = (   0.6905921   0.6215329   0.5529614), wk =   0.0028531
        k(  192) = (   0.6905921   0.6284389   0.5558717), wk =   0.0028531
        k(  193) = (   0.6905921   0.6353448   0.5587820), wk =   0.0028531
        k(  194) = (   0.6905921   0.6422507   0.5616924), wk =   0.0028531
        k(  195) = (   0.6905921   0.6491566   0.5646027), wk =   0.0028531
        k(  196) = (   0.6905921   0.6560625   0.5675130), wk =   0.0028531
        k(  197) = (   0.6905921   0.6629685   0.5704233), wk =   0.0028531
        k(  198) = (   0.6905921   0.6698744   0.5733336), wk =   0.0028531
        k(  199) = (   0.6905921   0.6767803   0.5762440), wk =   0.0028531
        k(  200) = (   0.6905921   0.6836862   0.5791543), wk =   0.0028531
        k(  201) = (   0.6905921   0.6905921   0.5820646), wk =   0.0028531
        k(  202) = (   0.6836862   0.6836862   0.5762440), wk =   0.0028531
        k(  203) = (   0.6767803   0.6767803   0.5704233), wk =   0.0028531
        k(  204) = (   0.6698744   0.6698744   0.5646027), wk =   0.0028531
        k(  205) = (   0.6629685   0.6629685   0.5587820), wk =   0.0028531
        k(  206) = (   0.6560625   0.6560625   0.5529614), wk =   0.0028531
        k(  207) = (   0.6491566   0.6491566   0.5471407), wk =   0.0028531
        k(  208) = (   0.6422507   0.6422507   0.5413201), wk =   0.0028531
        k(  209) = (   0.6353448   0.6353448   0.5354994), wk =   0.0028531
        k(  210) = (   0.6284389   0.6284389   0.5296788), wk =   0.0028531
        k(  211) = (   0.6215329   0.6215329   0.5238582), wk =   0.0028531
        k(  212) = (   0.6146270   0.6146270   0.5180375), wk =   0.0028531
        k(  213) = (   0.6077211   0.6077211   0.5122169), wk =   0.0028531
        k(  214) = (   0.6008152   0.6008152   0.5063962), wk =   0.0028531
        k(  215) = (   0.5939092   0.5939092   0.5005756), wk =   0.0028531
        k(  216) = (   0.5870033   0.5870033   0.4947549), wk =   0.0028531
        k(  217) = (   0.5800974   0.5800974   0.4889343), wk =   0.0028531
        k(  218) = (   0.5731915   0.5731915   0.4831136), wk =   0.0028531
        k(  219) = (   0.5662856   0.5662856   0.4772930), wk =   0.0028531
        k(  220) = (   0.5593796   0.5593796   0.4714723), wk =   0.0028531
        k(  221) = (   0.5524737   0.5524737   0.4656517), wk =   0.0028531
        k(  222) = (   0.5455678   0.5455678   0.4598310), wk =   0.0028531
        k(  223) = (   0.5386619   0.5386619   0.4540104), wk =   0.0028531
        k(  224) = (   0.5317560   0.5317560   0.4481898), wk =   0.0028531
        k(  225) = (   0.5248500   0.5248500   0.4423691), wk =   0.0028531
        k(  226) = (   0.5179441   0.5179441   0.4365485), wk =   0.0028531
        k(  227) = (   0.5110382   0.5110382   0.4307278), wk =   0.0028531
        k(  228) = (   0.5041323   0.5041323   0.4249072), wk =   0.0028531
        k(  229) = (   0.4972263   0.4972263   0.4190865), wk =   0.0028531
        k(  230) = (   0.4903204   0.4903204   0.4132659), wk =   0.0028531
        k(  231) = (   0.4834145   0.4834145   0.4074452), wk =   0.0028531
        k(  232) = (   0.4765086   0.4765086   0.4016246), wk =   0.0028531
        k(  233) = (   0.4696027   0.4696027   0.3958039), wk =   0.0028531
        k(  234) = (   0.4626967   0.4626967   0.3899833), wk =   0.0028531
        k(  235) = (   0.4557908   0.4557908   0.3841626), wk =   0.0028531
        k(  236) = (   0.4488849   0.4488849   0.3783420), wk =   0.0028531
        k(  237) = (   0.4419790   0.4419790   0.3725214), wk =   0.0028531
        k(  238) = (   0.4350731   0.4350731   0.3667007), wk =   0.0028531
        k(  239) = (   0.4281671   0.4281671   0.3608801), wk =   0.0028531
        k(  240) = (   0.4212612   0.4212612   0.3550594), wk =   0.0028531
        k(  241) = (   0.4143553   0.4143553   0.3492388), wk =   0.0028531
        k(  242) = (   0.4074494   0.4074494   0.3434181), wk =   0.0028531
        k(  243) = (   0.4005434   0.4005434   0.3375975), wk =   0.0028531
        k(  244) = (   0.3936375   0.3936375   0.3317768), wk =   0.0028531
        k(  245) = (   0.3867316   0.3867316   0.3259562), wk =   0.0028531
        k(  246) = (   0.3798257   0.3798257   0.3201355), wk =   0.0028531
        k(  247) = (   0.3729198   0.3729198   0.3143149), wk =   0.0028531
        k(  248) = (   0.3660138   0.3660138   0.3084942), wk =   0.0028531
        k(  249) = (   0.3591079   0.3591079   0.3026736), wk =   0.0028531
        k(  250) = (   0.3522020   0.3522020   0.2968530), wk =   0.0028531
        k(  251) = (   0.3452961   0.3452961   0.2910323), wk =   0.0028531
        k(  252) = (   0.3383902   0.3383902   0.2852117), wk =   0.0028531
        k(  253) = (   0.3314842   0.3314842   0.2793910), wk =   0.0028531
        k(  254) = (   0.3245783   0.3245783   0.2735704), wk =   0.0028531
        k(  255) = (   0.3176724   0.3176724   0.2677497), wk =   0.0028531
        k(  256) = (   0.3107665   0.3107665   0.2619291), wk =   0.0028531
        k(  257) = (   0.3038605   0.3038605   0.2561084), wk =   0.0028531
        k(  258) = (   0.2969546   0.2969546   0.2502878), wk =   0.0028531
        k(  259) = (   0.2900487   0.2900487   0.2444671), wk =   0.0028531
        k(  260) = (   0.2831428   0.2831428   0.2386465), wk =   0.0028531
        k(  261) = (   0.2762369   0.2762369   0.2328258), wk =   0.0028531
        k(  262) = (   0.2693309   0.2693309   0.2270052), wk =   0.0028531
        k(  263) = (   0.2624250   0.2624250   0.2211846), wk =   0.0028531
        k(  264) = (   0.2555191   0.2555191   0.2153639), wk =   0.0028531
        k(  265) = (   0.2486132   0.2486132   0.2095433), wk =   0.0028531
        k(  266) = (   0.2417073   0.2417073   0.2037226), wk =   0.0028531
        k(  267) = (   0.2348013   0.2348013   0.1979020), wk =   0.0028531
        k(  268) = (   0.2278954   0.2278954   0.1920813), wk =   0.0028531
        k(  269) = (   0.2209895   0.2209895   0.1862607), wk =   0.0028531
        k(  270) = (   0.2140836   0.2140836   0.1804400), wk =   0.0028531
        k(  271) = (   0.2071776   0.2071776   0.1746194), wk =   0.0028531
        k(  272) = (   0.2002717   0.2002717   0.1687987), wk =   0.0028531
        k(  273) = (   0.1933658   0.1933658   0.1629781), wk =   0.0028531
        k(  274) = (   0.1864599   0.1864599   0.1571574), wk =   0.0028531
        k(  275) = (   0.1795540   0.1795540   0.1513368), wk =   0.0028531
        k(  276) = (   0.1726480   0.1726480   0.1455162), wk =   0.0028531
        k(  277) = (   0.1657421   0.1657421   0.1396955), wk =   0.0028531
        k(  278) = (   0.1588362   0.1588362   0.1338749), wk =   0.0028531
        k(  279) = (   0.1519303   0.1519303   0.1280542), wk =   0.0028531
        k(  280) = (   0.1450244   0.1450244   0.1222336), wk =   0.0028531
        k(  281) = (   0.1381184   0.1381184   0.1164129), wk =   0.0028531
        k(  282) = (   0.1312125   0.1312125   0.1105923), wk =   0.0028531
        k(  283) = (   0.1243066   0.1243066   0.1047716), wk =   0.0028531
        k(  284) = (   0.1174007   0.1174007   0.0989510), wk =   0.0028531
        k(  285) = (   0.1104947   0.1104947   0.0931303), wk =   0.0028531
        k(  286) = (   0.1035888   0.1035888   0.0873097), wk =   0.0028531
        k(  287) = (   0.0966829   0.0966829   0.0814890), wk =   0.0028531
        k(  288) = (   0.0897770   0.0897770   0.0756684), wk =   0.0028531
        k(  289) = (   0.0828711   0.0828711   0.0698478), wk =   0.0028531
        k(  290) = (   0.0759651   0.0759651   0.0640271), wk =   0.0028531
        k(  291) = (   0.0690592   0.0690592   0.0582065), wk =   0.0028531
        k(  292) = (   0.0621533   0.0621533   0.0523858), wk =   0.0028531
        k(  293) = (   0.0552474   0.0552474   0.0465652), wk =   0.0028531
        k(  294) = (   0.0483415   0.0483415   0.0407445), wk =   0.0028531
        k(  295) = (   0.0414355   0.0414355   0.0349239), wk =   0.0028531
        k(  296) = (   0.0345296   0.0345296   0.0291032), wk =   0.0028531
        k(  297) = (   0.0276237   0.0276237   0.0232826), wk =   0.0028531
        k(  298) = (   0.0207178   0.0207178   0.0174619), wk =   0.0028531
        k(  299) = (   0.0138118   0.0138118   0.0116413), wk =   0.0028531
        k(  300) = (   0.0069059   0.0069059   0.0058206), wk =   0.0028531
        k(  301) = (   0.0000000   0.0000000   0.0000000), wk =   0.0028531
        k(  302) = (   0.0069059   0.0069059   0.0000000), wk =   0.0028531
        k(  303) = (   0.0138118   0.0138118   0.0000000), wk =   0.0028531
        k(  304) = (   0.0207178   0.0207178   0.0000000), wk =   0.0028531
        k(  305) = (   0.0276237   0.0276237   0.0000000), wk =   0.0028531
        k(  306) = (   0.0345296   0.0345296   0.0000000), wk =   0.0028531
        k(  307) = (   0.0414355   0.0414355   0.0000000), wk =   0.0028531
        k(  308) = (   0.0483415   0.0483415   0.0000000), wk =   0.0028531
        k(  309) = (   0.0552474   0.0552474   0.0000000), wk =   0.0028531
        k(  310) = (   0.0621533   0.0621533   0.0000000), wk =   0.0028531
        k(  311) = (   0.0690592   0.0690592   0.0000000), wk =   0.0028531
        k(  312) = (   0.0759651   0.0759651   0.0000000), wk =   0.0028531
        k(  313) = (   0.0828711   0.0828711   0.0000000), wk =   0.0028531
        k(  314) = (   0.0897770   0.0897770   0.0000000), wk =   0.0028531
        k(  315) = (   0.0966829   0.0966829   0.0000000), wk =   0.0028531
        k(  316) = (   0.1035888   0.1035888   0.0000000), wk =   0.0028531
        k(  317) = (   0.1104947   0.1104947   0.0000000), wk =   0.0028531
        k(  318) = (   0.1174007   0.1174007   0.0000000), wk =   0.0028531
        k(  319) = (   0.1243066   0.1243066   0.0000000), wk =   0.0028531
        k(  320) = (   0.1312125   0.1312125   0.0000000), wk =   0.0028531
        k(  321) = (   0.1381184   0.1381184   0.0000000), wk =   0.0028531
        k(  322) = (   0.1450244   0.1450244   0.0000000), wk =   0.0028531
        k(  323) = (   0.1519303   0.1519303   0.0000000), wk =   0.0028531
        k(  324) = (   0.1588362   0.1588362   0.0000000), wk =   0.0028531
        k(  325) = (   0.1657421   0.1657421   0.0000000), wk =   0.0028531
        k(  326) = (   0.1726480   0.1726480   0.0000000), wk =   0.0028531
        k(  327) = (   0.1795540   0.1795540   0.0000000), wk =   0.0028531
        k(  328) = (   0.1864599   0.1864599   0.0000000), wk =   0.0028531
        k(  329) = (   0.1933658   0.1933658   0.0000000), wk =   0.0028531
        k(  330) = (   0.2002717   0.2002717   0.0000000), wk =   0.0028531
        k(  331) = (   0.2071776   0.2071776   0.0000000), wk =   0.0028531
        k(  332) = (   0.2140836   0.2140836   0.0000000), wk =   0.0028531
        k(  333) = (   0.2209895   0.2209895   0.0000000), wk =   0.0028531
        k(  334) = (   0.2278954   0.2278954   0.0000000), wk =   0.0028531
        k(  335) = (   0.2348013   0.2348013   0.0000000), wk =   0.0028531
        k(  336) = (   0.2417073   0.2417073   0.0000000), wk =   0.0028531
        k(  337) = (   0.2486132   0.2486132   0.0000000), wk =   0.0028531
        k(  338) = (   0.2555191   0.2555191   0.0000000), wk =   0.0028531
        k(  339) = (   0.2624250   0.2624250   0.0000000), wk =   0.0028531
        k(  340) = (   0.2693309   0.2693309   0.0000000), wk =   0.0028531
        k(  341) = (   0.2762369   0.2762369   0.0000000), wk =   0.0028531
        k(  342) = (   0.2831428   0.2831428   0.0000000), wk =   0.0028531
        k(  343) = (   0.2900487   0.2900487   0.0000000), wk =   0.0028531
        k(  344) = (   0.2969546   0.2969546   0.0000000), wk =   0.0028531
        k(  345) = (   0.3038605   0.3038605   0.0000000), wk =   0.0028531
        k(  346) = (   0.3107665   0.3107665   0.0000000), wk =   0.0028531
        k(  347) = (   0.3176724   0.3176724   0.0000000), wk =   0.0028531
        k(  348) = (   0.3245783   0.3245783   0.0000000), wk =   0.0028531
        k(  349) = (   0.3314842   0.3314842   0.0000000), wk =   0.0028531
        k(  350) = (   0.3383902   0.3383902   0.0000000), wk =   0.0028531
        k(  351) = (   0.3452961   0.3452961   0.0000000), wk =   0.0028531
        k(  352) = (   0.3522020   0.3522020   0.0000000), wk =   0.0028531
        k(  353) = (   0.3591079   0.3591079   0.0000000), wk =   0.0028531
        k(  354) = (   0.3660138   0.3660138   0.0000000), wk =   0.0028531
        k(  355) = (   0.3729198   0.3729198   0.0000000), wk =   0.0028531
        k(  356) = (   0.3798257   0.3798257   0.0000000), wk =   0.0028531
        k(  357) = (   0.3867316   0.3867316   0.0000000), wk =   0.0028531
        k(  358) = (   0.3936375   0.3936375   0.0000000), wk =   0.0028531
        k(  359) = (   0.4005434   0.4005434   0.0000000), wk =   0.0028531
        k(  360) = (   0.4074494   0.4074494   0.0000000), wk =   0.0028531
        k(  361) = (   0.4143553   0.4143553   0.0000000), wk =   0.0028531
        k(  362) = (   0.4212612   0.4212612   0.0000000), wk =   0.0028531
        k(  363) = (   0.4281671   0.4281671   0.0000000), wk =   0.0028531
        k(  364) = (   0.4350731   0.4350731   0.0000000), wk =   0.0028531
        k(  365) = (   0.4419790   0.4419790   0.0000000), wk =   0.0028531
        k(  366) = (   0.4488849   0.4488849   0.0000000), wk =   0.0028531
        k(  367) = (   0.4557908   0.4557908   0.0000000), wk =   0.0028531
        k(  368) = (   0.4626967   0.4626967   0.0000000), wk =   0.0028531
        k(  369) = (   0.4696027   0.4696027   0.0000000), wk =   0.0028531
        k(  370) = (   0.4765086   0.4765086   0.0000000), wk =   0.0028531
        k(  371) = (   0.4834145   0.4834145   0.0000000), wk =   0.0028531
        k(  372) = (   0.4903204   0.4903204   0.0000000), wk =   0.0028531
        k(  373) = (   0.4972263   0.4972263   0.0000000), wk =   0.0028531
        k(  374) = (   0.5041323   0.5041323   0.0000000), wk =   0.0028531
        k(  375) = (   0.5110382   0.5110382   0.0000000), wk =   0.0028531
        k(  376) = (   0.5179441   0.5179441   0.0000000), wk =   0.0028531
        k(  377) = (   0.5248500   0.5248500   0.0000000), wk =   0.0028531
        k(  378) = (   0.5317560   0.5317560   0.0000000), wk =   0.0028531
        k(  379) = (   0.5386619   0.5386619   0.0000000), wk =   0.0028531
        k(  380) = (   0.5455678   0.5455678   0.0000000), wk =   0.0028531
        k(  381) = (   0.5524737   0.5524737   0.0000000), wk =   0.0028531
        k(  382) = (   0.5593796   0.5593796   0.0000000), wk =   0.0028531
        k(  383) = (   0.5662856   0.5662856   0.0000000), wk =   0.0028531
        k(  384) = (   0.5731915   0.5731915   0.0000000), wk =   0.0028531
        k(  385) = (   0.5800974   0.5800974   0.0000000), wk =   0.0028531
        k(  386) = (   0.5870033   0.5870033   0.0000000), wk =   0.0028531
        k(  387) = (   0.5939092   0.5939092   0.0000000), wk =   0.0028531
        k(  388) = (   0.6008152   0.6008152   0.0000000), wk =   0.0028531
        k(  389) = (   0.6077211   0.6077211   0.0000000), wk =   0.0028531
        k(  390) = (   0.6146270   0.6146270   0.0000000), wk =   0.0028531
        k(  391) = (   0.6215329   0.6215329   0.0000000), wk =   0.0028531
        k(  392) = (   0.6284389   0.6284389   0.0000000), wk =   0.0028531
        k(  393) = (   0.6353448   0.6353448   0.0000000), wk =   0.0028531
        k(  394) = (   0.6422507   0.6422507   0.0000000), wk =   0.0028531
        k(  395) = (   0.6491566   0.6491566   0.0000000), wk =   0.0028531
        k(  396) = (   0.6560625   0.6560625   0.0000000), wk =   0.0028531
        k(  397) = (   0.6629685   0.6629685   0.0000000), wk =   0.0028531
        k(  398) = (   0.6698744   0.6698744   0.0000000), wk =   0.0028531
        k(  399) = (   0.6767803   0.6767803   0.0000000), wk =   0.0028531
        k(  400) = (   0.6836862   0.6836862   0.0000000), wk =   0.0028531
        k(  401) = (   0.6905921   0.6905921   0.0000000), wk =   0.0028531
        k(  402) = (   0.6974981   0.6905921   0.0029103), wk =   0.0028531
        k(  403) = (   0.7044040   0.6905921   0.0058206), wk =   0.0028531
        k(  404) = (   0.7113099   0.6905921   0.0087310), wk =   0.0028531
        k(  405) = (   0.7182158   0.6905921   0.0116413), wk =   0.0028531
        k(  406) = (   0.7251218   0.6905921   0.0145516), wk =   0.0028531
        k(  407) = (   0.7320277   0.6905921   0.0174619), wk =   0.0028531
        k(  408) = (   0.7389336   0.6905921   0.0203723), wk =   0.0028531
        k(  409) = (   0.7458395   0.6905921   0.0232826), wk =   0.0028531
        k(  410) = (   0.7527454   0.6905921   0.0261929), wk =   0.0028531
        k(  411) = (   0.7596514   0.6905921   0.0291032), wk =   0.0028531
        k(  412) = (   0.7665573   0.6905921   0.0320136), wk =   0.0028531
        k(  413) = (   0.7734632   0.6905921   0.0349239), wk =   0.0028531
        k(  414) = (   0.7803691   0.6905921   0.0378342), wk =   0.0028531
        k(  415) = (   0.7872750   0.6905921   0.0407445), wk =   0.0028531
        k(  416) = (   0.7941810   0.6905921   0.0436548), wk =   0.0028531
        k(  417) = (   0.8010869   0.6905921   0.0465652), wk =   0.0028531
        k(  418) = (   0.8079928   0.6905921   0.0494755), wk =   0.0028531
        k(  419) = (   0.8148987   0.6905921   0.0523858), wk =   0.0028531
        k(  420) = (   0.8218047   0.6905921   0.0552961), wk =   0.0028531
        k(  421) = (   0.8287106   0.6905921   0.0582065), wk =   0.0028531
        k(  422) = (   0.8356165   0.6905921   0.0611168), wk =   0.0028531
        k(  423) = (   0.8425224   0.6905921   0.0640271), wk =   0.0028531
        k(  424) = (   0.8494283   0.6905921   0.0669374), wk =   0.0028531
        k(  425) = (   0.8563343   0.6905921   0.0698478), wk =   0.0028531
        k(  426) = (   0.8632402   0.6905921   0.0727581), wk =   0.0028531
        k(  427) = (   0.8701461   0.6905921   0.0756684), wk =   0.0028531
        k(  428) = (   0.8770520   0.6905921   0.0785787), wk =   0.0028531
        k(  429) = (   0.8839579   0.6905921   0.0814890), wk =   0.0028531
        k(  430) = (   0.8908639   0.6905921   0.0843994), wk =   0.0028531
        k(  431) = (   0.8977698   0.6905921   0.0873097), wk =   0.0028531
        k(  432) = (   0.9046757   0.6905921   0.0902200), wk =   0.0028531
        k(  433) = (   0.9115816   0.6905921   0.0931303), wk =   0.0028531
        k(  434) = (   0.9184876   0.6905921   0.0960407), wk =   0.0028531
        k(  435) = (   0.9253935   0.6905921   0.0989510), wk =   0.0028531
        k(  436) = (   0.9322994   0.6905921   0.1018613), wk =   0.0028531
        k(  437) = (   0.9392053   0.6905921   0.1047716), wk =   0.0028531
        k(  438) = (   0.9461112   0.6905921   0.1076820), wk =   0.0028531
        k(  439) = (   0.9530172   0.6905921   0.1105923), wk =   0.0028531
        k(  440) = (   0.9599231   0.6905921   0.1135026), wk =   0.0028531
        k(  441) = (   0.9668290   0.6905921   0.1164129), wk =   0.0028531
        k(  442) = (   0.9737349   0.6905921   0.1193232), wk =   0.0028531
        k(  443) = (   0.9806408   0.6905921   0.1222336), wk =   0.0028531
        k(  444) = (   0.9875468   0.6905921   0.1251439), wk =   0.0028531
        k(  445) = (   0.9944527   0.6905921   0.1280542), wk =   0.0028531
        k(  446) = (   1.0013586   0.6905921   0.1309645), wk =   0.0028531
        k(  447) = (   1.0082645   0.6905921   0.1338749), wk =   0.0028531
        k(  448) = (   1.0151705   0.6905921   0.1367852), wk =   0.0028531
        k(  449) = (   1.0220764   0.6905921   0.1396955), wk =   0.0028531
        k(  450) = (   1.0289823   0.6905921   0.1426058), wk =   0.0028531
        k(  451) = (   1.0358882   0.6905921   0.1455162), wk =   0.0028531
        k(  452) = (   1.0427941   0.6905921   0.1484265), wk =   0.0028531
        k(  453) = (   1.0497001   0.6905921   0.1513368), wk =   0.0028531
        k(  454) = (   1.0566060   0.6905921   0.1542471), wk =   0.0028531
        k(  455) = (   1.0635119   0.6905921   0.1571574), wk =   0.0028531
        k(  456) = (   1.0704178   0.6905921   0.1600678), wk =   0.0028531
        k(  457) = (   1.0773237   0.6905921   0.1629781), wk =   0.0028531
        k(  458) = (   1.0842297   0.6905921   0.1658884), wk =   0.0028531
        k(  459) = (   1.0911356   0.6905921   0.1687987), wk =   0.0028531
        k(  460) = (   1.0980415   0.6905921   0.1717091), wk =   0.0028531
        k(  461) = (   1.1049474   0.6905921   0.1746194), wk =   0.0028531
        k(  462) = (   1.1118534   0.6905921   0.1775297), wk =   0.0028531
        k(  463) = (   1.1187593   0.6905921   0.1804400), wk =   0.0028531
        k(  464) = (   1.1256652   0.6905921   0.1833504), wk =   0.0028531
        k(  465) = (   1.1325711   0.6905921   0.1862607), wk =   0.0028531
        k(  466) = (   1.1394770   0.6905921   0.1891710), wk =   0.0028531
        k(  467) = (   1.1463830   0.6905921   0.1920813), wk =   0.0028531
        k(  468) = (   1.1532889   0.6905921   0.1949916), wk =   0.0028531
        k(  469) = (   1.1601948   0.6905921   0.1979020), wk =   0.0028531
        k(  470) = (   1.1671007   0.6905921   0.2008123), wk =   0.0028531
        k(  471) = (   1.1740067   0.6905921   0.2037226), wk =   0.0028531
        k(  472) = (   1.1809126   0.6905921   0.2066329), wk =   0.0028531
        k(  473) = (   1.1878185   0.6905921   0.2095433), wk =   0.0028531
        k(  474) = (   1.1947244   0.6905921   0.2124536), wk =   0.0028531
        k(  475) = (   1.2016303   0.6905921   0.2153639), wk =   0.0028531
        k(  476) = (   1.2085363   0.6905921   0.2182742), wk =   0.0028531
        k(  477) = (   1.2154422   0.6905921   0.2211846), wk =   0.0028531
        k(  478) = (   1.2223481   0.6905921   0.2240949), wk =   0.0028531
        k(  479) = (   1.2292540   0.6905921   0.2270052), wk =   0.0028531
        k(  480) = (   1.2361599   0.6905921   0.2299155), wk =   0.0028531
        k(  481) = (   1.2430659   0.6905921   0.2328258), wk =   0.0028531
        k(  482) = (   1.2499718   0.6905921   0.2357362), wk =   0.0028531
        k(  483) = (   1.2568777   0.6905921   0.2386465), wk =   0.0028531
        k(  484) = (   1.2637836   0.6905921   0.2415568), wk =   0.0028531
        k(  485) = (   1.2706896   0.6905921   0.2444671), wk =   0.0028531
        k(  486) = (   1.2775955   0.6905921   0.2473775), wk =   0.0028531
        k(  487) = (   1.2845014   0.6905921   0.2502878), wk =   0.0028531
        k(  488) = (   1.2914073   0.6905921   0.2531981), wk =   0.0028531
        k(  489) = (   1.2983132   0.6905921   0.2561084), wk =   0.0028531
        k(  490) = (   1.3052192   0.6905921   0.2590188), wk =   0.0028531
        k(  491) = (   1.3121251   0.6905921   0.2619291), wk =   0.0028531
        k(  492) = (   1.3190310   0.6905921   0.2648394), wk =   0.0028531
        k(  493) = (   1.3259369   0.6905921   0.2677497), wk =   0.0028531
        k(  494) = (   1.3328428   0.6905921   0.2706600), wk =   0.0028531
        k(  495) = (   1.3397488   0.6905921   0.2735704), wk =   0.0028531
        k(  496) = (   1.3466547   0.6905921   0.2764807), wk =   0.0028531
        k(  497) = (   1.3535606   0.6905921   0.2793910), wk =   0.0028531
        k(  498) = (   1.3604665   0.6905921   0.2823013), wk =   0.0028531
        k(  499) = (   1.3673725   0.6905921   0.2852117), wk =   0.0028531
        k(  500) = (   1.3742784   0.6905921   0.2881220), wk =   0.0028531
        k(  501) = (   1.3811843   0.6905921   0.2910323), wk =   0.0028531
        k(  502) = (   1.3811843   0.6974981   0.2939426), wk =   0.0028531
        k(  503) = (   1.3811843   0.7044040   0.2968530), wk =   0.0028531
        k(  504) = (   1.3811843   0.7113099   0.2997633), wk =   0.0028531
        k(  505) = (   1.3811843   0.7182158   0.3026736), wk =   0.0028531
        k(  506) = (   1.3811843   0.7251218   0.3055839), wk =   0.0028531
        k(  507) = (   1.3811843   0.7320277   0.3084942), wk =   0.0028531
        k(  508) = (   1.3811843   0.7389336   0.3114046), wk =   0.0028531
        k(  509) = (   1.3811843   0.7458395   0.3143149), wk =   0.0028531
        k(  510) = (   1.3811843   0.7527454   0.3172252), wk =   0.0028531
        k(  511) = (   1.3811843   0.7596514   0.3201355), wk =   0.0028531
        k(  512) = (   1.3811843   0.7665573   0.3230459), wk =   0.0028531
        k(  513) = (   1.3811843   0.7734632   0.3259562), wk =   0.0028531
        k(  514) = (   1.3811843   0.7803691   0.3288665), wk =   0.0028531
        k(  515) = (   1.3811843   0.7872750   0.3317768), wk =   0.0028531
        k(  516) = (   1.3811843   0.7941810   0.3346872), wk =   0.0028531
        k(  517) = (   1.3811843   0.8010869   0.3375975), wk =   0.0028531
        k(  518) = (   1.3811843   0.8079928   0.3405078), wk =   0.0028531
        k(  519) = (   1.3811843   0.8148987   0.3434181), wk =   0.0028531
        k(  520) = (   1.3811843   0.8218047   0.3463284), wk =   0.0028531
        k(  521) = (   1.3811843   0.8287106   0.3492388), wk =   0.0028531
        k(  522) = (   1.3811843   0.8356165   0.3521491), wk =   0.0028531
        k(  523) = (   1.3811843   0.8425224   0.3550594), wk =   0.0028531
        k(  524) = (   1.3811843   0.8494283   0.3579697), wk =   0.0028531
        k(  525) = (   1.3811843   0.8563343   0.3608801), wk =   0.0028531
        k(  526) = (   1.3811843   0.8632402   0.3637904), wk =   0.0028531
        k(  527) = (   1.3811843   0.8701461   0.3667007), wk =   0.0028531
        k(  528) = (   1.3811843   0.8770520   0.3696110), wk =   0.0028531
        k(  529) = (   1.3811843   0.8839579   0.3725214), wk =   0.0028531
        k(  530) = (   1.3811843   0.8908639   0.3754317), wk =   0.0028531
        k(  531) = (   1.3811843   0.8977698   0.3783420), wk =   0.0028531
        k(  532) = (   1.3811843   0.9046757   0.3812523), wk =   0.0028531
        k(  533) = (   1.3811843   0.9115816   0.3841626), wk =   0.0028531
        k(  534) = (   1.3811843   0.9184876   0.3870730), wk =   0.0028531
        k(  535) = (   1.3811843   0.9253935   0.3899833), wk =   0.0028531
        k(  536) = (   1.3811843   0.9322994   0.3928936), wk =   0.0028531
        k(  537) = (   1.3811843   0.9392053   0.3958039), wk =   0.0028531
        k(  538) = (   1.3811843   0.9461112   0.3987143), wk =   0.0028531
        k(  539) = (   1.3811843   0.9530172   0.4016246), wk =   0.0028531
        k(  540) = (   1.3811843   0.9599231   0.4045349), wk =   0.0028531
        k(  541) = (   1.3811843   0.9668290   0.4074452), wk =   0.0028531
        k(  542) = (   1.3811843   0.9737349   0.4103556), wk =   0.0028531
        k(  543) = (   1.3811843   0.9806408   0.4132659), wk =   0.0028531
        k(  544) = (   1.3811843   0.9875468   0.4161762), wk =   0.0028531
        k(  545) = (   1.3811843   0.9944527   0.4190865), wk =   0.0028531
        k(  546) = (   1.3811843   1.0013586   0.4219968), wk =   0.0028531
        k(  547) = (   1.3811843   1.0082645   0.4249072), wk =   0.0028531
        k(  548) = (   1.3811843   1.0151705   0.4278175), wk =   0.0028531
        k(  549) = (   1.3811843   1.0220764   0.4307278), wk =   0.0028531
        k(  550) = (   1.3811843   1.0289823   0.4336381), wk =   0.0028531
        k(  551) = (   1.3811843   1.0358882   0.4365485), wk =   0.0028531
        k(  552) = (   1.3811843   1.0427941   0.4394588), wk =   0.0028531
        k(  553) = (   1.3811843   1.0497001   0.4423691), wk =   0.0028531
        k(  554) = (   1.3811843   1.0566060   0.4452794), wk =   0.0028531
        k(  555) = (   1.3811843   1.0635119   0.4481898), wk =   0.0028531
        k(  556) = (   1.3811843   1.0704178   0.4511001), wk =   0.0028531
        k(  557) = (   1.3811843   1.0773237   0.4540104), wk =   0.0028531
        k(  558) = (   1.3811843   1.0842297   0.4569207), wk =   0.0028531
        k(  559) = (   1.3811843   1.0911356   0.4598310), wk =   0.0028531
        k(  560) = (   1.3811843   1.0980415   0.4627414), wk =   0.0028531
        k(  561) = (   1.3811843   1.1049474   0.4656517), wk =   0.0028531
        k(  562) = (   1.3811843   1.1118534   0.4685620), wk =   0.0028531
        k(  563) = (   1.3811843   1.1187593   0.4714723), wk =   0.0028531
        k(  564) = (   1.3811843   1.1256652   0.4743827), wk =   0.0028531
        k(  565) = (   1.3811843   1.1325711   0.4772930), wk =   0.0028531
        k(  566) = (   1.3811843   1.1394770   0.4802033), wk =   0.0028531
        k(  567) = (   1.3811843   1.1463830   0.4831136), wk =   0.0028531
        k(  568) = (   1.3811843   1.1532889   0.4860240), wk =   0.0028531
        k(  569) = (   1.3811843   1.1601948   0.4889343), wk =   0.0028531
        k(  570) = (   1.3811843   1.1671007   0.4918446), wk =   0.0028531
        k(  571) = (   1.3811843   1.1740067   0.4947549), wk =   0.0028531
        k(  572) = (   1.3811843   1.1809126   0.4976652), wk =   0.0028531
        k(  573) = (   1.3811843   1.1878185   0.5005756), wk =   0.0028531
        k(  574) = (   1.3811843   1.1947244   0.5034859), wk =   0.0028531
        k(  575) = (   1.3811843   1.2016303   0.5063962), wk =   0.0028531
        k(  576) = (   1.3811843   1.2085363   0.5093065), wk =   0.0028531
        k(  577) = (   1.3811843   1.2154422   0.5122169), wk =   0.0028531
        k(  578) = (   1.3811843   1.2223481   0.5151272), wk =   0.0028531
        k(  579) = (   1.3811843   1.2292540   0.5180375), wk =   0.0028531
        k(  580) = (   1.3811843   1.2361599   0.5209478), wk =   0.0028531
        k(  581) = (   1.3811843   1.2430659   0.5238582), wk =   0.0028531
        k(  582) = (   1.3811843   1.2499718   0.5267685), wk =   0.0028531
        k(  583) = (   1.3811843   1.2568777   0.5296788), wk =   0.0028531
        k(  584) = (   1.3811843   1.2637836   0.5325891), wk =   0.0028531
        k(  585) = (   1.3811843   1.2706896   0.5354994), wk =   0.0028531
        k(  586) = (   1.3811843   1.2775955   0.5384098), wk =   0.0028531
        k(  587) = (   1.3811843   1.2845014   0.5413201), wk =   0.0028531
        k(  588) = (   1.3811843   1.2914073   0.5442304), wk =   0.0028531
        k(  589) = (   1.3811843   1.2983132   0.5471407), wk =   0.0028531
        k(  590) = (   1.3811843   1.3052192   0.5500511), wk =   0.0028531
        k(  591) = (   1.3811843   1.3121251   0.5529614), wk =   0.0028531
        k(  592) = (   1.3811843   1.3190310   0.5558717), wk =   0.0028531
        k(  593) = (   1.3811843   1.3259369   0.5587820), wk =   0.0028531
        k(  594) = (   1.3811843   1.3328428   0.5616924), wk =   0.0028531
        k(  595) = (   1.3811843   1.3397488   0.5646027), wk =   0.0028531
        k(  596) = (   1.3811843   1.3466547   0.5675130), wk =   0.0028531
        k(  597) = (   1.3811843   1.3535606   0.5704233), wk =   0.0028531
        k(  598) = (   1.3811843   1.3604665   0.5733336), wk =   0.0028531
        k(  599) = (   1.3811843   1.3673725   0.5762440), wk =   0.0028531
        k(  600) = (   1.3811843   1.3742784   0.5791543), wk =   0.0028531
        k(  601) = (   1.3811843   1.3811843   0.5820646), wk =   0.0028531
        k(  602) = (   1.3742784   1.3742784   0.5762440), wk =   0.0028531
        k(  603) = (   1.3673725   1.3673725   0.5704233), wk =   0.0028531
        k(  604) = (   1.3604665   1.3604665   0.5646027), wk =   0.0028531
        k(  605) = (   1.3535606   1.3535606   0.5587820), wk =   0.0028531
        k(  606) = (   1.3466547   1.3466547   0.5529614), wk =   0.0028531
        k(  607) = (   1.3397488   1.3397488   0.5471407), wk =   0.0028531
        k(  608) = (   1.3328428   1.3328428   0.5413201), wk =   0.0028531
        k(  609) = (   1.3259369   1.3259369   0.5354994), wk =   0.0028531
        k(  610) = (   1.3190310   1.3190310   0.5296788), wk =   0.0028531
        k(  611) = (   1.3121251   1.3121251   0.5238582), wk =   0.0028531
        k(  612) = (   1.3052192   1.3052192   0.5180375), wk =   0.0028531
        k(  613) = (   1.2983132   1.2983132   0.5122169), wk =   0.0028531
        k(  614) = (   1.2914073   1.2914073   0.5063962), wk =   0.0028531
        k(  615) = (   1.2845014   1.2845014   0.5005756), wk =   0.0028531
        k(  616) = (   1.2775955   1.2775955   0.4947549), wk =   0.0028531
        k(  617) = (   1.2706896   1.2706896   0.4889343), wk =   0.0028531
        k(  618) = (   1.2637836   1.2637836   0.4831136), wk =   0.0028531
        k(  619) = (   1.2568777   1.2568777   0.4772930), wk =   0.0028531
        k(  620) = (   1.2499718   1.2499718   0.4714723), wk =   0.0028531
        k(  621) = (   1.2430659   1.2430659   0.4656517), wk =   0.0028531
        k(  622) = (   1.2361599   1.2361599   0.4598310), wk =   0.0028531
        k(  623) = (   1.2292540   1.2292540   0.4540104), wk =   0.0028531
        k(  624) = (   1.2223481   1.2223481   0.4481898), wk =   0.0028531
        k(  625) = (   1.2154422   1.2154422   0.4423691), wk =   0.0028531
        k(  626) = (   1.2085363   1.2085363   0.4365485), wk =   0.0028531
        k(  627) = (   1.2016303   1.2016303   0.4307278), wk =   0.0028531
        k(  628) = (   1.1947244   1.1947244   0.4249072), wk =   0.0028531
        k(  629) = (   1.1878185   1.1878185   0.4190865), wk =   0.0028531
        k(  630) = (   1.1809126   1.1809126   0.4132659), wk =   0.0028531
        k(  631) = (   1.1740067   1.1740067   0.4074452), wk =   0.0028531
        k(  632) = (   1.1671007   1.1671007   0.4016246), wk =   0.0028531
        k(  633) = (   1.1601948   1.1601948   0.3958039), wk =   0.0028531
        k(  634) = (   1.1532889   1.1532889   0.3899833), wk =   0.0028531
        k(  635) = (   1.1463830   1.1463830   0.3841626), wk =   0.0028531
        k(  636) = (   1.1394770   1.1394770   0.3783420), wk =   0.0028531
        k(  637) = (   1.1325711   1.1325711   0.3725214), wk =   0.0028531
        k(  638) = (   1.1256652   1.1256652   0.3667007), wk =   0.0028531
        k(  639) = (   1.1187593   1.1187593   0.3608801), wk =   0.0028531
        k(  640) = (   1.1118534   1.1118534   0.3550594), wk =   0.0028531
        k(  641) = (   1.1049474   1.1049474   0.3492388), wk =   0.0028531
        k(  642) = (   1.0980415   1.0980415   0.3434181), wk =   0.0028531
        k(  643) = (   1.0911356   1.0911356   0.3375975), wk =   0.0028531
        k(  644) = (   1.0842297   1.0842297   0.3317768), wk =   0.0028531
        k(  645) = (   1.0773237   1.0773237   0.3259562), wk =   0.0028531
        k(  646) = (   1.0704178   1.0704178   0.3201355), wk =   0.0028531
        k(  647) = (   1.0635119   1.0635119   0.3143149), wk =   0.0028531
        k(  648) = (   1.0566060   1.0566060   0.3084942), wk =   0.0028531
        k(  649) = (   1.0497001   1.0497001   0.3026736), wk =   0.0028531
        k(  650) = (   1.0427941   1.0427941   0.2968530), wk =   0.0028531
        k(  651) = (   1.0358882   1.0358882   0.2910323), wk =   0.0028531
        k(  652) = (   1.0289823   1.0289823   0.2852117), wk =   0.0028531
        k(  653) = (   1.0220764   1.0220764   0.2793910), wk =   0.0028531
        k(  654) = (   1.0151705   1.0151705   0.2735704), wk =   0.0028531
        k(  655) = (   1.0082645   1.0082645   0.2677497), wk =   0.0028531
        k(  656) = (   1.0013586   1.0013586   0.2619291), wk =   0.0028531
        k(  657) = (   0.9944527   0.9944527   0.2561084), wk =   0.0028531
        k(  658) = (   0.9875468   0.9875468   0.2502878), wk =   0.0028531
        k(  659) = (   0.9806408   0.9806408   0.2444671), wk =   0.0028531
        k(  660) = (   0.9737349   0.9737349   0.2386465), wk =   0.0028531
        k(  661) = (   0.9668290   0.9668290   0.2328258), wk =   0.0028531
        k(  662) = (   0.9599231   0.9599231   0.2270052), wk =   0.0028531
        k(  663) = (   0.9530172   0.9530172   0.2211846), wk =   0.0028531
        k(  664) = (   0.9461112   0.9461112   0.2153639), wk =   0.0028531
        k(  665) = (   0.9392053   0.9392053   0.2095433), wk =   0.0028531
        k(  666) = (   0.9322994   0.9322994   0.2037226), wk =   0.0028531
        k(  667) = (   0.9253935   0.9253935   0.1979020), wk =   0.0028531
        k(  668) = (   0.9184876   0.9184876   0.1920813), wk =   0.0028531
        k(  669) = (   0.9115816   0.9115816   0.1862607), wk =   0.0028531
        k(  670) = (   0.9046757   0.9046757   0.1804400), wk =   0.0028531
        k(  671) = (   0.8977698   0.8977698   0.1746194), wk =   0.0028531
        k(  672) = (   0.8908639   0.8908639   0.1687987), wk =   0.0028531
        k(  673) = (   0.8839579   0.8839579   0.1629781), wk =   0.0028531
        k(  674) = (   0.8770520   0.8770520   0.1571574), wk =   0.0028531
        k(  675) = (   0.8701461   0.8701461   0.1513368), wk =   0.0028531
        k(  676) = (   0.8632402   0.8632402   0.1455162), wk =   0.0028531
        k(  677) = (   0.8563343   0.8563343   0.1396955), wk =   0.0028531
        k(  678) = (   0.8494283   0.8494283   0.1338749), wk =   0.0028531
        k(  679) = (   0.8425224   0.8425224   0.1280542), wk =   0.0028531
        k(  680) = (   0.8356165   0.8356165   0.1222336), wk =   0.0028531
        k(  681) = (   0.8287106   0.8287106   0.1164129), wk =   0.0028531
        k(  682) = (   0.8218047   0.8218047   0.1105923), wk =   0.0028531
        k(  683) = (   0.8148987   0.8148987   0.1047716), wk =   0.0028531
        k(  684) = (   0.8079928   0.8079928   0.0989510), wk =   0.0028531
        k(  685) = (   0.8010869   0.8010869   0.0931303), wk =   0.0028531
        k(  686) = (   0.7941810   0.7941810   0.0873097), wk =   0.0028531
        k(  687) = (   0.7872750   0.7872750   0.0814890), wk =   0.0028531
        k(  688) = (   0.7803691   0.7803691   0.0756684), wk =   0.0028531
        k(  689) = (   0.7734632   0.7734632   0.0698478), wk =   0.0028531
        k(  690) = (   0.7665573   0.7665573   0.0640271), wk =   0.0028531
        k(  691) = (   0.7596514   0.7596514   0.0582065), wk =   0.0028531
        k(  692) = (   0.7527454   0.7527454   0.0523858), wk =   0.0028531
        k(  693) = (   0.7458395   0.7458395   0.0465652), wk =   0.0028531
        k(  694) = (   0.7389336   0.7389336   0.0407445), wk =   0.0028531
        k(  695) = (   0.7320277   0.7320277   0.0349239), wk =   0.0028531
        k(  696) = (   0.7251218   0.7251218   0.0291032), wk =   0.0028531
        k(  697) = (   0.7182158   0.7182158   0.0232826), wk =   0.0028531
        k(  698) = (   0.7113099   0.7113099   0.0174619), wk =   0.0028531
        k(  699) = (   0.7044040   0.7044040   0.0116413), wk =   0.0028531
        k(  700) = (   0.6974981   0.6974981   0.0058206), wk =   0.0028531
        k(  701) = (   0.6905921   0.6905921   0.0000000), wk =   0.0028531

                       cryst. coord.
        k(    1) = (   0.0000000   0.0000000   0.0000000), wk =   0.0028531
        k(    2) = (   0.0000000   0.0050000   0.0000000), wk =   0.0028531
        k(    3) = (   0.0000000   0.0100000   0.0000000), wk =   0.0028531
        k(    4) = (  -0.0000000   0.0150000   0.0000000), wk =   0.0028531
        k(    5) = (   0.0000000   0.0200000   0.0000000), wk =   0.0028531
        k(    6) = (  -0.0000000   0.0250000   0.0000000), wk =   0.0028531
        k(    7) = (  -0.0000000   0.0300000   0.0000000), wk =   0.0028531
        k(    8) = (   0.0000000   0.0350000   0.0000000), wk =   0.0028531
        k(    9) = (   0.0000000   0.0400000   0.0000000), wk =   0.0028531
        k(   10) = (   0.0000000   0.0450000   0.0000000), wk =   0.0028531
        k(   11) = (  -0.0000000   0.0500000   0.0000000), wk =   0.0028531
        k(   12) = (  -0.0000000   0.0550000   0.0000000), wk =   0.0028531
        k(   13) = (  -0.0000000   0.0600000   0.0000000), wk =   0.0028531
        k(   14) = (   0.0000000   0.0650000   0.0000000), wk =   0.0028531
        k(   15) = (   0.0000000   0.0700000   0.0000000), wk =   0.0028531
        k(   16) = (   0.0000000   0.0750000   0.0000000), wk =   0.0028531
        k(   17) = (   0.0000000   0.0800000   0.0000000), wk =   0.0028531
        k(   18) = (   0.0000000   0.0850000   0.0000000), wk =   0.0028531
        k(   19) = (   0.0000000   0.0900000   0.0000000), wk =   0.0028531
        k(   20) = (  -0.0000000   0.0950000   0.0000000), wk =   0.0028531
        k(   21) = (  -0.0000000   0.1000000   0.0000000), wk =   0.0028531
        k(   22) = (  -0.0000000   0.1050000   0.0000000), wk =   0.0028531
        k(   23) = (  -0.0000000   0.1100000   0.0000000), wk =   0.0028531
        k(   24) = (  -0.0000000   0.1150000   0.0000000), wk =   0.0028531
        k(   25) = (  -0.0000000   0.1200000   0.0000000), wk =   0.0028531
        k(   26) = (  -0.0000000   0.1250000   0.0000000), wk =   0.0028531
        k(   27) = (   0.0000000   0.1300000   0.0000000), wk =   0.0028531
        k(   28) = (  -0.0000000   0.1350000   0.0000000), wk =   0.0028531
        k(   29) = (   0.0000000   0.1400000   0.0000000), wk =   0.0028531
        k(   30) = (  -0.0000000   0.1450000   0.0000000), wk =   0.0028531
        k(   31) = (   0.0000000   0.1500000   0.0000000), wk =   0.0028531
        k(   32) = (  -0.0000000   0.1550000   0.0000000), wk =   0.0028531
        k(   33) = (   0.0000000   0.1600000   0.0000000), wk =   0.0028531
        k(   34) = (  -0.0000000   0.1650000   0.0000000), wk =   0.0028531
        k(   35) = (   0.0000000   0.1700000   0.0000000), wk =   0.0028531
        k(   36) = (  -0.0000000   0.1750000   0.0000000), wk =   0.0028531
        k(   37) = (   0.0000000   0.1800000   0.0000000), wk =   0.0028531
        k(   38) = (  -0.0000000   0.1850000   0.0000000), wk =   0.0028531
        k(   39) = (  -0.0000000   0.1900000   0.0000000), wk =   0.0028531
        k(   40) = (  -0.0000000   0.1950000   0.0000000), wk =   0.0028531
        k(   41) = (  -0.0000000   0.2000000   0.0000000), wk =   0.0028531
        k(   42) = (   0.0000000   0.2050000   0.0000000), wk =   0.0028531
        k(   43) = (  -0.0000000   0.2100000   0.0000000), wk =   0.0028531
        k(   44) = (   0.0000000   0.2150000   0.0000000), wk =   0.0028531
        k(   45) = (  -0.0000000   0.2200000   0.0000000), wk =   0.0028531
        k(   46) = (   0.0000000   0.2250000   0.0000000), wk =   0.0028531
        k(   47) = (  -0.0000000   0.2300000   0.0000000), wk =   0.0028531
        k(   48) = (  -0.0000000   0.2350000   0.0000000), wk =   0.0028531
        k(   49) = (  -0.0000000   0.2400000   0.0000000), wk =   0.0028531
        k(   50) = (  -0.0000000   0.2450000   0.0000000), wk =   0.0028531
        k(   51) = (  -0.0000000   0.2500000   0.0000000), wk =   0.0028531
        k(   52) = (   0.0000000   0.2550000   0.0000000), wk =   0.0028531
        k(   53) = (   0.0000000   0.2600000   0.0000000), wk =   0.0028531
        k(   54) = (  -0.0000000   0.2650000   0.0000000), wk =   0.0028531
        k(   55) = (  -0.0000000   0.2700000   0.0000000), wk =   0.0028531
        k(   56) = (   0.0000000   0.2750000   0.0000000), wk =   0.0028531
        k(   57) = (   0.0000000   0.2800000   0.0000000), wk =   0.0028531
        k(   58) = (  -0.0000000   0.2850000   0.0000000), wk =   0.0028531
        k(   59) = (  -0.0000000   0.2900000   0.0000000), wk =   0.0028531
        k(   60) = (   0.0000000   0.2950000   0.0000000), wk =   0.0028531
        k(   61) = (   0.0000000   0.3000000   0.0000000), wk =   0.0028531
        k(   62) = (  -0.0000000   0.3050000   0.0000000), wk =   0.0028531
        k(   63) = (  -0.0000000   0.3100000   0.0000000), wk =   0.0028531
        k(   64) = (  -0.0000000   0.3150000   0.0000000), wk =   0.0028531
        k(   65) = (   0.0000000   0.3200000   0.0000000), wk =   0.0028531
        k(   66) = (  -0.0000000   0.3250000   0.0000000), wk =   0.0028531
        k(   67) = (  -0.0000000   0.3300000   0.0000000), wk =   0.0028531
        k(   68) = (  -0.0000000   0.3350000   0.0000000), wk =   0.0028531
        k(   69) = (   0.0000000   0.3400000   0.0000000), wk =   0.0028531
        k(   70) = (   0.0000000   0.3450000   0.0000000), wk =   0.0028531
        k(   71) = (  -0.0000000   0.3500000   0.0000000), wk =   0.0028531
        k(   72) = (  -0.0000000   0.3550000   0.0000000), wk =   0.0028531
        k(   73) = (   0.0000000   0.3600000   0.0000000), wk =   0.0028531
        k(   74) = (  -0.0000000   0.3650000   0.0000000), wk =   0.0028531
        k(   75) = (  -0.0000000   0.3700000   0.0000000), wk =   0.0028531
        k(   76) = (   0.0000000   0.3750000   0.0000000), wk =   0.0028531
        k(   77) = (  -0.0000000   0.3800000   0.0000000), wk =   0.0028531
        k(   78) = (   0.0000000   0.3850000   0.0000000), wk =   0.0028531
        k(   79) = (  -0.0000000   0.3900000   0.0000000), wk =   0.0028531
        k(   80) = (  -0.0000000   0.3950000   0.0000000), wk =   0.0028531
        k(   81) = (  -0.0000000   0.4000000   0.0000000), wk =   0.0028531
        k(   82) = (  -0.0000000   0.4050000   0.0000000), wk =   0.0028531
        k(   83) = (   0.0000000   0.4100000   0.0000000), wk =   0.0028531
        k(   84) = (  -0.0000000   0.4150000   0.0000000), wk =   0.0028531
        k(   85) = (  -0.0000000   0.4200000   0.0000000), wk =   0.0028531
        k(   86) = (  -0.0000000   0.4250000   0.0000000), wk =   0.0028531
        k(   87) = (   0.0000000   0.4300000   0.0000000), wk =   0.0028531
        k(   88) = (  -0.0000000   0.4350000   0.0000000), wk =   0.0028531
        k(   89) = (  -0.0000000   0.4400000   0.0000000), wk =   0.0028531
        k(   90) = (   0.0000000   0.4450000   0.0000000), wk =   0.0028531
        k(   91) = (   0.0000000   0.4500000   0.0000000), wk =   0.0028531
        k(   92) = (   0.0000000   0.4550000   0.0000000), wk =   0.0028531
        k(   93) = (  -0.0000000   0.4600000   0.0000000), wk =   0.0028531
        k(   94) = (  -0.0000000   0.4650000   0.0000000), wk =   0.0028531
        k(   95) = (  -0.0000000   0.4700000   0.0000000), wk =   0.0028531
        k(   96) = (   0.0000000   0.4750000   0.0000000), wk =   0.0028531
        k(   97) = (  -0.0000000   0.4800000   0.0000000), wk =   0.0028531
        k(   98) = (  -0.0000000   0.4850000   0.0000000), wk =   0.0028531
        k(   99) = (  -0.0000000   0.4900000   0.0000000), wk =   0.0028531
        k(  100) = (   0.0000000   0.4950000   0.0000000), wk =   0.0028531
        k(  101) = (  -0.0000000   0.5000000   0.0000000), wk =   0.0028531
        k(  102) = (   0.0050000   0.5000000   0.0000000), wk =   0.0028531
        k(  103) = (   0.0100000   0.5000000   0.0000000), wk =   0.0028531
        k(  104) = (   0.0150000   0.5000000   0.0000000), wk =   0.0028531
        k(  105) = (   0.0200000   0.5000000   0.0000000), wk =   0.0028531
        k(  106) = (   0.0250000   0.5000000   0.0000000), wk =   0.0028531
        k(  107) = (   0.0300000   0.5000000   0.0000000), wk =   0.0028531
        k(  108) = (   0.0350000   0.5000000   0.0000000), wk =   0.0028531
        k(  109) = (   0.0400000   0.5000000   0.0000000), wk =   0.0028531
        k(  110) = (   0.0450000   0.5000000   0.0000000), wk =   0.0028531
        k(  111) = (   0.0500000   0.5000000   0.0000000), wk =   0.0028531
        k(  112) = (   0.0550000   0.5000000   0.0000000), wk =   0.0028531
        k(  113) = (   0.0600000   0.5000000   0.0000000), wk =   0.0028531
        k(  114) = (   0.0650000   0.5000000   0.0000000), wk =   0.0028531
        k(  115) = (   0.0700000   0.5000000   0.0000000), wk =   0.0028531
        k(  116) = (   0.0750000   0.5000000   0.0000000), wk =   0.0028531
        k(  117) = (   0.0800000   0.5000000   0.0000000), wk =   0.0028531
        k(  118) = (   0.0850000   0.5000000   0.0000000), wk =   0.0028531
        k(  119) = (   0.0900000   0.5000000   0.0000000), wk =   0.0028531
        k(  120) = (   0.0950000   0.5000000   0.0000000), wk =   0.0028531
        k(  121) = (   0.1000000   0.5000000   0.0000000), wk =   0.0028531
        k(  122) = (   0.1050000   0.5000000   0.0000000), wk =   0.0028531
        k(  123) = (   0.1100000   0.5000000   0.0000000), wk =   0.0028531
        k(  124) = (   0.1150000   0.5000000   0.0000000), wk =   0.0028531
        k(  125) = (   0.1200000   0.5000000   0.0000000), wk =   0.0028531
        k(  126) = (   0.1250000   0.5000000   0.0000000), wk =   0.0028531
        k(  127) = (   0.1300000   0.5000000   0.0000000), wk =   0.0028531
        k(  128) = (   0.1350000   0.5000000   0.0000000), wk =   0.0028531
        k(  129) = (   0.1400000   0.5000000   0.0000000), wk =   0.0028531
        k(  130) = (   0.1450000   0.5000000   0.0000000), wk =   0.0028531
        k(  131) = (   0.1500000   0.5000000   0.0000000), wk =   0.0028531
        k(  132) = (   0.1550000   0.5000000   0.0000000), wk =   0.0028531
        k(  133) = (   0.1600000   0.5000000   0.0000000), wk =   0.0028531
        k(  134) = (   0.1650000   0.5000000   0.0000000), wk =   0.0028531
        k(  135) = (   0.1700000   0.5000000   0.0000000), wk =   0.0028531
        k(  136) = (   0.1750000   0.5000000   0.0000000), wk =   0.0028531
        k(  137) = (   0.1800000   0.5000000   0.0000000), wk =   0.0028531
        k(  138) = (   0.1850000   0.5000000   0.0000000), wk =   0.0028531
        k(  139) = (   0.1900000   0.5000000   0.0000000), wk =   0.0028531
        k(  140) = (   0.1950000   0.5000000   0.0000000), wk =   0.0028531
        k(  141) = (   0.2000000   0.5000000   0.0000000), wk =   0.0028531
        k(  142) = (   0.2050000   0.5000000   0.0000000), wk =   0.0028531
        k(  143) = (   0.2100000   0.5000000   0.0000000), wk =   0.0028531
        k(  144) = (   0.2150000   0.5000000   0.0000000), wk =   0.0028531
        k(  145) = (   0.2200000   0.5000000   0.0000000), wk =   0.0028531
        k(  146) = (   0.2250000   0.5000000   0.0000000), wk =   0.0028531
        k(  147) = (   0.2300000   0.5000000   0.0000000), wk =   0.0028531
        k(  148) = (   0.2350000   0.5000000   0.0000000), wk =   0.0028531
        k(  149) = (   0.2400000   0.5000000   0.0000000), wk =   0.0028531
        k(  150) = (   0.2450000   0.5000000   0.0000000), wk =   0.0028531
        k(  151) = (   0.2500000   0.5000000   0.0000000), wk =   0.0028531
        k(  152) = (   0.2550000   0.5000000   0.0000000), wk =   0.0028531
        k(  153) = (   0.2600000   0.5000000   0.0000000), wk =   0.0028531
        k(  154) = (   0.2650000   0.5000000   0.0000000), wk =   0.0028531
        k(  155) = (   0.2700000   0.5000000   0.0000000), wk =   0.0028531
        k(  156) = (   0.2750000   0.5000000   0.0000000), wk =   0.0028531
        k(  157) = (   0.2800000   0.5000000   0.0000000), wk =   0.0028531
        k(  158) = (   0.2850000   0.5000000   0.0000000), wk =   0.0028531
        k(  159) = (   0.2900000   0.5000000   0.0000000), wk =   0.0028531
        k(  160) = (   0.2950000   0.5000000   0.0000000), wk =   0.0028531
        k(  161) = (   0.3000000   0.5000000   0.0000000), wk =   0.0028531
        k(  162) = (   0.3050000   0.5000000   0.0000000), wk =   0.0028531
        k(  163) = (   0.3100000   0.5000000   0.0000000), wk =   0.0028531
        k(  164) = (   0.3150000   0.5000000   0.0000000), wk =   0.0028531
        k(  165) = (   0.3200000   0.5000000   0.0000000), wk =   0.0028531
        k(  166) = (   0.3250000   0.5000000   0.0000000), wk =   0.0028531
        k(  167) = (   0.3300000   0.5000000   0.0000000), wk =   0.0028531
        k(  168) = (   0.3350000   0.5000000   0.0000000), wk =   0.0028531
        k(  169) = (   0.3400000   0.5000000   0.0000000), wk =   0.0028531
        k(  170) = (   0.3450000   0.5000000   0.0000000), wk =   0.0028531
        k(  171) = (   0.3500000   0.5000000   0.0000000), wk =   0.0028531
        k(  172) = (   0.3550000   0.5000000   0.0000000), wk =   0.0028531
        k(  173) = (   0.3600000   0.5000000   0.0000000), wk =   0.0028531
        k(  174) = (   0.3650000   0.5000000   0.0000000), wk =   0.0028531
        k(  175) = (   0.3700000   0.5000000   0.0000000), wk =   0.0028531
        k(  176) = (   0.3750000   0.5000000   0.0000000), wk =   0.0028531
        k(  177) = (   0.3800000   0.5000000   0.0000000), wk =   0.0028531
        k(  178) = (   0.3850000   0.5000000   0.0000000), wk =   0.0028531
        k(  179) = (   0.3900000   0.5000000   0.0000000), wk =   0.0028531
        k(  180) = (   0.3950000   0.5000000   0.0000000), wk =   0.0028531
        k(  181) = (   0.4000000   0.5000000   0.0000000), wk =   0.0028531
        k(  182) = (   0.4050000   0.5000000   0.0000000), wk =   0.0028531
        k(  183) = (   0.4100000   0.5000000  -0.0000000), wk =   0.0028531
        k(  184) = (   0.4150000   0.5000000   0.0000000), wk =   0.0028531
        k(  185) = (   0.4200000   0.5000000   0.0000000), wk =   0.0028531
[...]
    40.1064  40.5585  40.8102  41.2490  41.6163  42.6799  43.0736  43.2979
    43.8590  44.3650  44.7449  44.7592  45.2390  46.3047  46.5000  46.9381
    47.9783  48.3345  48.4455  48.8944  49.5735  49.7491  50.3904  50.5924
    51.1963  51.3047  51.8832  51.8899

          k = 0.8011 0.8011 0.0931 (  6364 PWs)   bands (ev):

   -72.2287 -72.2281 -38.0191 -38.0150 -37.9913 -37.9905 -37.9430 -37.9388
   -28.8051  -9.8557  -9.8533  -9.8040  -0.0912   2.0482   6.4163   6.9898
     7.7056   8.0016   8.5085   8.8567   8.9769   9.1743   9.4009   9.7223
     9.9090  10.4007  10.8388  11.5566  11.7187  13.7009  15.8434  15.9685
    16.6399  16.7409  17.1740  17.2110  17.8051  19.4735  20.0501  20.6804
    20.9738  22.3473  22.9028  23.8935  24.4027  24.6847  25.3284  26.5600
    26.7107  27.0658  27.5495  28.5443  28.8985  29.8169  29.8987  30.7040
    31.7587  31.8905  32.1591  32.2024  32.7750  33.4560  34.3352  34.6342
    35.5850  35.8018  36.3077  36.8677  37.6946  38.0393  38.8255  40.0409
    40.2020  40.4718  40.7537  41.2531  41.5970  42.6161  43.0281  43.3419
    43.9122  44.2869  44.6300  44.7899  45.1140  46.3992  46.4463  46.9823
    48.0528  48.3450  48.4725  48.9659  49.5671  49.8046  50.3937  50.5965
    51.2085  51.2728  51.8654  51.8699

          k = 0.7942 0.7942 0.0873 (  6364 PWs)   bands (ev):

   -72.2287 -72.2282 -38.0192 -38.0156 -37.9913 -37.9906 -37.9424 -37.9387
   -28.8051  -9.8558  -9.8535  -9.8040  -0.0876   2.0501   6.4183   6.9808
     7.7224   7.9982   8.5207   8.8545   8.9670   9.1715   9.3809   9.7336
     9.9111  10.3716  10.8734  11.5363  11.7179  13.6775  15.8328  15.9862
    16.6354  16.7487  17.2100  17.2187  17.7300  19.4554  20.0856  20.7442
    21.0191  22.3228  22.9053  23.9362  24.3848  24.6911  25.2845  26.5422
    26.7193  27.1363  27.5723  28.5061  28.9429  29.7799  29.8764  30.7087
    31.7332  31.8991  32.0948  32.1543  32.7775  33.3964  34.3491  34.5230
    35.5415  35.8584  36.4163  36.9461  37.6990  38.0329  38.9616  40.0134
    40.2954  40.3781  40.7038  41.2580  41.5779  42.5424  42.9786  43.4017
    43.9651  44.2028  44.5154  44.7962  45.0206  46.3902  46.4904  47.0371
    48.1219  48.3532  48.4907  49.0436  49.5584  49.8515  50.4047  50.6025
    51.2011  51.2419  51.8290  51.8654

          k = 0.7873 0.7873 0.0815 (  6360 PWs)   bands (ev):

   -72.2286 -72.2282 -38.0193 -38.0161 -37.9912 -37.9906 -37.9419 -37.9387
   -28.8051  -9.8560  -9.8537  -9.8039  -0.0841   2.0517   6.4205   6.9723
     7.7385   7.9949   8.5327   8.8515   8.9579   9.1689   9.3615   9.7454
     9.9130  10.3432  10.9070  11.5170  11.7172  13.6543  15.8224  16.0068
    16.6318  16.7559  17.2090  17.2621  17.6566  19.4345  20.1202  20.8065
    21.0624  22.2988  22.9036  23.9870  24.3680  24.6761  25.2646  26.4902
    26.7534  27.2067  27.6015  28.4666  28.9837  29.7392  29.8606  30.7055
    31.7087  31.8992  32.0503  32.1053  32.7818  33.3368  34.3548  34.4213
    35.4924  35.9239  36.5323  37.0217  37.7045  38.0290  39.0881  39.9875
    40.2831  40.3856  40.6599  41.2643  41.5592  42.4647  42.9245  43.4683
    44.0156  44.1133  44.4179  44.7217  45.0060  46.3325  46.5712  47.1063
    48.1861  48.3600  48.5009  49.1250  49.5489  49.8844  50.4270  50.6099
    51.1758  51.2121  51.7908  51.8696

          k = 0.7804 0.7804 0.0757 (  6357 PWs)   bands (ev):

   -72.2286 -72.2282 -38.0193 -38.0166 -37.9912 -37.9906 -37.9414 -37.9386
   -28.8051  -9.8561  -9.8539  -9.8039  -0.0809   2.0532   6.4228   6.9644
     7.7539   7.9918   8.5446   8.8476   8.9497   9.1665   9.3428   9.7576
     9.9149  10.3156  10.9396  11.4987  11.7166  13.6313  15.8123  16.0303
    16.6288  16.7623  17.2080  17.3031  17.5862  19.4115  20.1539  20.8667
    21.1038  22.2761  22.8984  24.0449  24.3524  24.6398  25.2680  26.4223
    26.7956  27.2766  27.6368  28.4264  29.0167  29.7023  29.8475  30.6938
    31.6856  31.8849  32.0320  32.0558  32.7876  33.2778  34.2937  34.3881
    35.4413  35.9979  36.6511  37.0936  37.7113  38.0289  39.1944  39.9683
    40.1939  40.4718  40.6209  41.2727  41.5412  42.3866  42.8656  43.5325
    44.0038  44.0778  44.3389  44.6053  45.0365  46.2736  46.6377  47.1921
    48.2459  48.3655  48.5047  49.2054  49.5418  49.9000  50.4603  50.6191
    51.1349  51.1839  51.7478  51.8625

          k = 0.7735 0.7735 0.0698 (  6351 PWs)   bands (ev):

   -72.2286 -72.2283 -38.0194 -38.0170 -37.9911 -37.9907 -37.9410 -37.9386
   -28.8050  -9.8562  -9.8540  -9.8039  -0.0779   2.0545   6.4253   6.9570
     7.7686   7.9889   8.5562   8.8429   8.9427   9.1642   9.3249   9.7702
     9.9166  10.2887  10.9710  11.4815  11.7161  13.6089  15.8026  16.0562
    16.6267  16.7681  17.2070  17.3382  17.5218  19.3868  20.1866  20.9239
    21.1430  22.2554  22.8905  24.1085  24.3386  24.5870  25.2896  26.3459
    26.8394  27.3456  27.6776  28.3859  29.0373  29.6737  29.8370  30.6733
    31.6638  31.8608  32.0062  32.0352  32.7944  33.2202  34.1947  34.3949
    35.3902  36.0796  36.7692  37.1612  37.7202  38.0331  39.2641  39.9651
    40.1193  40.5525  40.5858  41.2838  41.5240  42.3107  42.8024  43.5838
    43.9050  44.1198  44.2800  44.4911  45.0760  46.2142  46.6895  47.2939
    48.3023  48.3696  48.5037  49.2764  49.5442  49.8989  50.4991  50.6317
    51.0823  51.1573  51.7031  51.8630

          k = 0.7666 0.7666 0.0640 (  6353 PWs)   bands (ev):

   -72.2285 -72.2283 -38.0194 -38.0174 -37.9910 -37.9907 -37.9406 -37.9385
   -28.8050  -9.8563  -9.8542  -9.8038  -0.0751   2.0556   6.4277   6.9501
     7.7824   7.9862   8.5675   8.8375   8.9367   9.1621   9.3078   9.7831
     9.9183  10.2627  11.0011  11.4654  11.7157  13.5872  15.7934  16.0843
    16.6253  16.7732  17.2060  17.3546  17.4763  19.3609  20.2183  20.9776
    21.1799  22.2373  22.8806  24.1753  24.3282  24.5242  25.3230  26.2639
    26.8824  27.4133  27.7234  28.3457  29.0415  29.6552  29.8308  30.6447
    31.6436  31.8368  31.9569  32.0498  32.8020  33.1643  34.0971  34.4032
    35.3401  36.1683  36.8837  37.2237  37.7317  38.0426  39.2801  39.9733
    40.0819  40.5541  40.6264  41.2983  41.5079  42.2388  42.7358  43.6075
    43.8016  44.1450  44.2532  44.4014  45.1144  46.1546  46.7289  47.4085
    48.3558  48.3724  48.4995  49.3231  49.5696  49.8835  50.5341  50.6506
    51.0215  51.1326  51.6575  51.8659

          k = 0.7597 0.7597 0.0582 (  6350 PWs)   bands (ev):

   -72.2285 -72.2283 -38.0195 -38.0178 -37.9910 -37.9907 -37.9402 -37.9385
   -28.8050  -9.8564  -9.8543  -9.8038  -0.0725   2.0565   6.4302   6.9438
     7.7953   7.9837   8.5784   8.8315   8.9318   9.1602   9.2916   9.7963
     9.9198  10.2376  11.0296  11.4502  11.7153  13.5665  15.7847  16.1143
    16.6248  16.7777  17.2051  17.3274  17.4743  19.3343  20.2486  21.0270
    21.2144  22.2224  22.8695  24.2372  24.3285  24.4563  25.3630  26.1779
    26.9238  27.4790  27.7735  28.3062  29.0278  29.6449  29.8325  30.6090
    31.6249  31.8175  31.9083  32.0697  32.8102  33.1106  34.0038  34.4105
    35.2921  36.2627  36.9922  37.2807  37.7468  38.0575  39.2403  39.9485
    40.1291  40.5256  40.6920  41.3167  41.4934  42.1724  42.6675  43.5878
    43.6987  44.1320  44.2744  44.3537  45.1483  46.0955  46.7590  47.5321
    48.3737  48.4073  48.4937  49.3366  49.6259  49.8566  50.5576  50.6770
    50.9566  51.1100  51.6119  51.8695

          k = 0.7527 0.7527 0.0524 (  6346 PWs)   bands (ev):

   -72.2285 -72.2283 -38.0195 -38.0181 -37.9909 -37.9908 -37.9398 -37.9385
   -28.8050  -9.8565  -9.8544  -9.8038  -0.0701   2.0574   6.4325   6.9381
     7.8072   7.9815   8.5889   8.8250   8.9279   9.1585   9.2764   9.8098
     9.9212  10.2133  11.0565  11.4361  11.7150  13.5470  15.7767  16.1458
    16.6254  16.7817  17.2042  17.2723  17.4999  19.3077  20.2774  21.0714
    21.2463  22.2113  22.8577  24.2670  24.3660  24.3870  25.4059  26.0889
    26.9629  27.5422  27.8275  28.2680  28.9976  29.6378  29.8451  30.5681
    31.6079  31.8042  31.8607  32.0921  32.8188  33.0594  33.9159  34.4166
    35.2468  36.3618  37.0918  37.3321  37.7666  38.0778  39.1593  39.9058
    40.2316  40.5000  40.7480  41.3385  41.4812  42.1126  42.5998  43.5193
    43.5979  44.1040  44.3178  44.3537  45.1762  46.0375  46.7824  47.6612
    48.3735  48.4572  48.4876  49.3258  49.7030  49.8202  50.5689  50.7043
    50.8925  51.0895  51.5645  51.8801

          k = 0.7458 0.7458 0.0466 (  6354 PWs)   bands (ev):

   -72.2285 -72.2283 -38.0195 -38.0185 -37.9909 -37.9908 -37.9395 -37.9385
   -28.8050  -9.8566  -9.8545  -9.8038  -0.0680   2.0580   6.4348   6.9330
     7.8181   7.9795   8.5988   8.8183   8.9248   9.1569   9.2624   9.8233
     9.9224  10.1901  11.0816  11.4230  11.7148  13.5288  15.7694  16.1784
    16.6271  16.7852  17.2034  17.2107  17.5315  19.2815  20.3045  21.1105
    21.2753  22.2040  22.8458  24.2670  24.3190  24.4378  25.4491  25.9976
    26.9992  27.6022  27.8849  28.2316  28.9543  29.6294  29.8698  30.5239
    31.5926  31.7963  31.8145  32.1155  32.8277  33.0113  33.8343  34.4215
    35.2048  36.4639  37.1800  37.3781  37.7919  38.1031  39.0533  39.8629
    40.3552  40.4779  40.7938  41.3623  41.4721  42.0608  42.5356  43.4124
    43.5002  44.0770  44.3657  44.3905  45.1970  45.9811  46.8012  47.7929
    48.3718  48.4825  48.5059  49.3021  49.7753  49.7883  50.5711  50.7198
    50.8384  51.0709  51.5178  51.8968

          k = 0.7389 0.7389 0.0407 (  6349 PWs)   bands (ev):

   -72.2285 -72.2284 -38.0196 -38.0187 -37.9909 -37.9908 -37.9392 -37.9384
   -28.8050  -9.8566  -9.8546  -9.8037  -0.0661   2.0586   6.4369   6.9284
     7.8279   7.9777   8.6081   8.8116   8.9225   9.1555   9.2496   9.8369
     9.9235  10.1680  11.1048  11.4109  11.7146  13.5123  15.7629  16.2114
    16.6303  16.7882  17.1487  17.2027  17.5629  19.2564  20.3295  21.1437
    21.3015  22.2007  22.8343  24.2542  24.2605  24.5199  25.4908  25.9049
    27.0325  27.6583  27.9452  28.1976  28.9014  29.6181  29.9042  30.4785
    31.5790  31.7704  31.7927  32.1391  32.8366  32.9666  33.7597  34.4254
    35.1665  36.5670  37.2548  37.4199  37.8233  38.1321  38.9339  39.8223
    40.4512  40.4942  40.8295  41.3850  41.4679  42.0185  42.4781  43.2824
    43.4063  44.0539  44.4134  44.4489  45.2101  45.9273  46.8165  47.9242
    48.3691  48.4800  48.5535  49.2717  49.7225  49.8749  50.5647  50.7081
    50.8111  51.0546  51.4711  51.9218

          k = 0.7320 0.7320 0.0349 (  6355 PWs)   bands (ev):

   -72.2284 -72.2284 -38.0196 -38.0189 -37.9909 -37.9909 -37.9391 -37.9384
   -28.8050  -9.8567  -9.8547  -9.8037  -0.0645   2.0591   6.4388   6.9245
     7.8365   7.9761   8.6167   8.8051   8.9208   9.1543   9.2381   9.8504
     9.9245  10.1472  11.1257  11.3999  11.7144  13.4975  15.7571  16.2441
    16.6354  16.7907  17.0879  17.2021  17.5923  19.2330  20.3522  21.1712
    21.3245  22.2009  22.8236  24.1942  24.2532  24.6060  25.5295  25.8113
    27.0622  27.7095  28.0079  28.1666  28.8420  29.6049  29.9440  30.4341
    31.5672  31.7289  31.7923  32.1620  32.8454  32.9259  33.6927  34.4283
    35.1324  36.6686  37.3150  37.4590  37.8602  38.1633  38.8081  39.7843
    40.4376  40.6233  40.8558  41.4020  41.4706  41.9873  42.4304  43.1406
    43.3171  44.0350  44.4591  44.5175  45.2154  45.8768  46.8292  48.0515
    48.3656  48.4818  48.5999  49.2375  49.6621  49.9588  50.5468  50.6785
    50.8071  51.0402  51.4258  51.9504

          k = 0.7251 0.7251 0.0291 (  6347 PWs)   bands (ev):

   -72.2284 -72.2284 -38.0196 -38.0191 -37.9909 -37.9908 -37.9389 -37.9384
   -28.8050  -9.8567  -9.8548  -9.8037  -0.0631   2.0595   6.4405   6.9211
     7.8440   7.9748   8.6243   8.7991   8.9195   9.1533   9.2282   9.8634
     9.9253  10.1279  11.1443  11.3901  11.7143  13.4847  15.7522  16.2754
    16.6429  16.7928  17.0293  17.2016  17.6186  19.2118  20.3722  21.1930
    21.3444  22.2040  22.8139  24.1405  24.2464  24.6940  25.5641  25.7176
    27.0882  27.7551  28.0725  28.1391  28.7783  29.5911  29.9849  30.3927
    31.5573  31.6911  31.7939  32.1833  32.8539  32.8896  33.6341  34.4305
    35.1028  36.7655  37.3612  37.4977  37.9003  38.1945  38.6812  39.7496
    40.4232  40.7504  40.8742  41.4114  41.4796  41.9693  42.3951  42.9943
    43.2336  44.0200  44.5012  44.5891  45.2128  45.8307  46.8397  48.1689
    48.3622  48.4918  48.6449  49.2014  49.5945  50.0370  50.5165  50.6554
    50.8075  51.0279  51.3825  51.9831

          k = 0.7182 0.7182 0.0233 (  6349 PWs)   bands (ev):

   -72.2284 -72.2284 -38.0196 -38.0193 -37.9909 -37.9908 -37.9387 -37.9384
   -28.8049  -9.8568  -9.8549  -9.8037  -0.0619   2.0598   6.4419   6.9183
     7.8501   7.9737   8.6309   8.7938   8.9186   9.1525   9.2198   9.8757
     9.9260  10.1106  11.1602  11.3814  11.7142  13.4740  15.7481  16.3042
    16.6534  16.7944  16.9738  17.2011  17.6411  19.1935  20.3891  21.2097
    21.3608  22.2088  22.8057  24.0943  24.2405  24.7825  25.5938  25.6247
    27.1099  27.7941  28.1156  28.1386  28.7119  29.5781  30.0235  30.3560
    31.5491  31.6578  31.7966  32.2025  32.8584  32.8617  33.5847  34.4321
    35.0780  36.8535  37.3949  37.5382  37.9404  38.2228  38.5582  39.7189
    40.4113  40.8663  40.8862  41.4159  41.4895  41.9670  42.3732  42.8488
    43.1578  44.0084  44.5385  44.6588  45.2033  45.7902  46.8483  48.2649
    48.3598  48.5184  48.6877  49.1649  49.5211  50.1070  50.4802  50.6425
    50.8066  51.0175  51.3430  52.0281

          k = 0.7113 0.7113 0.0175 (  6349 PWs)   bands (ev):

   -72.2284 -72.2284 -38.0196 -38.0194 -37.9909 -37.9908 -37.9386 -37.9384
   -28.8049  -9.8568  -9.8549  -9.8037  -0.0610   2.0600   6.4430   6.9162
     7.8550   7.9728   8.6363   8.7893   8.9181   9.1519   9.2132   9.8867
     9.9265  10.0956  11.1731  11.3743  11.7141  13.4655  15.7449  16.3289
    16.6673  16.7957  16.9226  17.2008  17.6592  19.1787  20.4027  21.2217
    21.3737  22.2143  22.7991  24.0569  24.2358  24.8694  25.5345  25.6177
    27.1273  27.8256  28.0967  28.2055  28.6443  29.5670  30.0568  30.3257
    31.5427  31.6301  31.7995  32.2185  32.8331  32.8684  33.5452  34.4332
    35.0585  36.9279  37.4184  37.5820  37.9765  38.2442  38.4463  39.6932
    40.4019  40.8936  40.9648  41.4192  41.4961  41.9823  42.3638  42.7096
    43.0922  43.9998  44.5695  44.7224  45.1884  45.7567  46.8549  48.3237
    48.3607  48.5712  48.7271  49.1300  49.4451  50.1660  50.4462  50.6358
    50.8043  51.0091  51.3086  52.0412

          k = 0.7044 0.7044 0.0116 (  6344 PWs)   bands (ev):

   -72.2284 -72.2284 -38.0196 -38.0195 -37.9909 -37.9908 -37.9385 -37.9383
   -28.8049  -9.8568  -9.8549  -9.8037  -0.0604   2.0602   6.4438   6.9147
     7.8585   7.9722   8.6404   8.7859   8.9177   9.1514   9.2084   9.8956
     9.9269  10.0839  11.1828  11.3688  11.7140  13.4594  15.7426  16.3479
    16.6841  16.7966  16.8777  17.2006  17.6725  19.1677  20.4127  21.2298
    21.3830  22.2193  22.7942  24.0294  24.2324  24.9511  25.4505  25.6352
    27.1398  27.8488  28.0829  28.2719  28.5771  29.5585  30.0824  30.3030
    31.5382  31.6094  31.8020  32.2308  32.8143  32.8736  33.5163  34.4340
    35.0443  36.9842  37.4336  37.6273  38.0050  38.2487  38.3610  39.6738
    40.3953  40.8977  41.0397  41.4222  41.4985  42.0141  42.3631  42.5844
    43.0404  43.9939  44.5930  44.7755  45.1710  45.7314  46.8597  48.3425
    48.3698  48.6416  48.7606  49.0994  49.3728  50.2112  50.4196  50.6322
    50.8017  51.0028  51.2819  52.0631

          k = 0.6975 0.6975 0.0058 (  6352 PWs)   bands (ev):

   -72.2284 -72.2284 -38.0196 -38.0196 -37.9910 -37.9908 -37.9384 -37.9383
   -28.8049  -9.8569  -9.8549  -9.8037  -0.0600   2.0602   6.4443   6.9137
     7.8606   7.9718   8.6429   8.7838   8.9175   9.1511   9.2055   9.9015
     9.9271  10.0763  11.1888  11.3654  11.7140  13.4557  15.7412  16.3599
    16.7011  16.7971  16.8433  17.2004  17.6806  19.1609  20.4187  21.2344
    21.3886  22.2228  22.7912  24.0125  24.2303  25.0179  25.3824  25.6458
    27.1475  27.8630  28.0744  28.3338  28.5146  29.5532  30.0985  30.2890
    31.5355  31.5965  31.8037  32.2384  32.8027  32.8769  33.4987  34.4344
    35.0358  37.0190  37.4421  37.6655  38.0233  38.2227  38.3268  39.6617
    40.3913  40.8996  41.0862  41.4248  41.4984  42.0529  42.3660  42.4878
    43.0067  43.9905  44.6076  44.8120  45.1563  45.7157  46.8626  48.3450
    48.3781  48.7028  48.7843  49.0774  49.3164  50.2398  50.4029  50.6303
    50.7997  50.9988  51.2647  52.0766

          k = 0.6906 0.6906 0.0000 (  6352 PWs)   bands (ev):

   -72.2284 -72.2284 -38.0196 -38.0196 -37.9910 -37.9908 -37.9384 -37.9383
   -28.8049  -9.8569  -9.8550  -9.8037  -0.0599   2.0603   6.4445   6.9134
     7.8613   7.9717   8.6437   8.7831   8.9174   9.1510   9.2045   9.9036
     9.9272  10.0736  11.1908  11.3642  11.7140  13.4545  15.7408  16.3640
    16.7093  16.7973  16.8292  17.2004  17.6834  19.1587  20.4208  21.2359
    21.3905  22.2240  22.7902  24.0068  24.2296  25.0467  25.3531  25.6494
    27.1500  27.8678  28.0715  28.3684  28.4797  29.5514  30.1041  30.2842
    31.5345  31.5921  31.8043  32.2410  32.7988  32.8781  33.4927  34.4345
    35.0329  37.0307  37.4449  37.6813  38.0296  38.2038  38.3224  39.6576
    40.3899  40.9002  41.1020  41.4258  41.4980  42.0728  42.3677  42.4484
    42.9949  43.9894  44.6126  44.8253  45.1503  45.7104  46.8636  48.3452
    48.3807  48.7275  48.7931  49.0691  49.2940  50.2496  50.3973  50.6298
    50.7989  50.9974  51.2588  52.0790

     Writing all to output data dir ./tmp/capd2as2.save/ :
     XML data file, pseudopotentials, collected wavefunctions

     init_run     :      2.11s CPU      2.57s WALL (       1 calls)
     electrons    :  32103.69s CPU  33056.89s WALL (       1 calls)

     Called by init_run:
     wfcinit      :      0.00s CPU      0.00s WALL (       1 calls)
     wfcinit:atom :      0.54s CPU      0.55s WALL (     176 calls)
     wfcinit:wfcr :    407.43s CPU    410.28s WALL (     176 calls)
     potinit      :      1.02s CPU      1.26s WALL (       1 calls)
     hinit0       :      0.83s CPU      0.85s WALL (       1 calls)

     Called by electrons:
     c_bands      :  32103.62s CPU  33056.58s WALL (       1 calls)
     v_of_rho     :      0.45s CPU      0.65s WALL (       1 calls)
     v_h          :      0.02s CPU      0.05s WALL (       1 calls)
     v_xc         :      0.43s CPU      0.59s WALL (       1 calls)
     newd         :      0.16s CPU      0.33s WALL (       1 calls)
     PAW_pot      :      0.29s CPU      0.29s WALL (       1 calls)

     Called by c_bands:
     init_us_2    :      1.39s CPU      1.37s WALL (     176 calls)
     ccgdiagg     :  29549.68s CPU  30456.75s WALL (    1056 calls)
     wfcrot       :   2334.31s CPU   2375.01s WALL (    1056 calls)

     Called by sum_band:

     Called by *cgdiagg:
     h_psi        :  20441.63s CPU  21210.15s WALL ( 1327503 calls)
     s_psi        :   3819.69s CPU   3909.04s WALL ( 2653950 calls)

     Called by h_psi:
     h_psi:calbec :   2476.87s CPU   2596.07s WALL ( 1327503 calls)
     vloc_psi     :  15885.70s CPU  16476.27s WALL ( 1327503 calls)
     add_vuspsi   :   1993.36s CPU   2064.42s WALL ( 1327503 calls)
     hs_1psi      :  20780.11s CPU  21538.93s WALL ( 1326447 calls)
     s_1psi       :   4064.50s CPU   4146.32s WALL ( 1326447 calls)

     General routines
     calbec       :   4586.50s CPU   4784.86s WALL ( 2653950 calls)
     fft          :      0.50s CPU      0.56s WALL (      13 calls)
     ffts         :      0.21s CPU      0.20s WALL (       1 calls)
     fftw         :   9998.54s CPU  10408.80s WALL ( 2864094 calls)
     interpolate  :      0.24s CPU      0.24s WALL (       1 calls)
     davcio       :     13.95s CPU     39.26s WALL (     352 calls)

     Parallel routines

     PAW routines
     PAW_pot      :      0.29s CPU      0.29s WALL (       1 calls)

     PWSCF        :      8h55m CPU      9h11m WALL


   This run was terminated on:  20:51:12   8Nov2025            

=------------------------------------------------------------------------------=
   JOB DONE.
=------------------------------------------------------------------------------=
