
     Program PWSCF v.7.4.1 starts on  7Nov2025 at 21:39: 3 

     This program is part of the open-source Quantum ESPRESSO suite
     for quantum simulation of materials; please cite
         "P. Giannozzi et al., J. Phys.:Condens. Matter 21 395502 (2009);
         "P. Giannozzi et al., J. Phys.:Condens. Matter 29 465901 (2017);
         "P. Giannozzi et al., J. Chem. Phys. 152 154105 (2020);
          URL http://www.quantum-espresso.org", 
     in publications or presentations arising from this work. More details at
     http://www.quantum-espresso.org/quote

     Parallel version (MPI), running on     8 processors

     MPI processes distributed on     1 nodes
     11022 MiB available memory on the printing compute node when the environment starts

     Reading input from scf.in

     Current dimensions of program PWSCF are:
     Max number of different atomic species (ntypx) = 10
     Max number of k-points (npk) =  40000
     Max angular momentum in pseudopotentials (lmaxx) =  4
     file Ca.pbe-spn-kjpaw_psl.1.0.0.UPF: wavefunction(s)  3S renormalized
     file Pd.pbe-spn-kjpaw_psl.1.0.0.UPF: wavefunction(s)  4S 5S 4D renormalized
     Message from routine setup:
     using ibrav=0 with symmetry is DISCOURAGED, use correct ibrav instead

     R & G space division:  proc/nbgrp/npool/nimage =       8
     Subspace diagonalization in iterative solution of the eigenvalue problem:
     a serial algorithm will be used


     Parallelization info
     --------------------
     sticks:   dense  smooth     PW     G-vecs:    dense   smooth      PW
     Min         620     308     98                17937     6330    1142
     Max         621     309     99                17938     6331    1144
     Sum        4967    2469    785               143497    50647    9141

     Using Slab Decomposition



     bravais-lattice index     =            0
     lattice parameter (alat)  =      11.2488  a.u.
     unit-cell volume          =     640.9372 (a.u.)^3
     number of atoms/cell      =            5
     number of atomic types    =            3
     number of electrons       =        56.00
     number of Kohn-Sham states=           34
     kinetic-energy cutoff     =      70.0000  Ry
     charge density cutoff     =     560.0000  Ry
     scf convergence threshold =      1.0E-08
     mixing beta               =       0.3000
     number of iterations used =            8  plain     mixing
     Exchange-correlation= SLA  PW   PBX  PBC
                           (   1   4   3   4   0   0   0)

     celldm(1)=  11.248812  celldm(2)=   0.000000  celldm(3)=   0.000000
     celldm(4)=   0.000000  celldm(5)=   0.000000  celldm(6)=   0.000000

     crystal axes: (cart. coord. in units of alat)
               a(1) = (  -0.362008   0.362008   0.859011 )  
               a(2) = (   0.362008  -0.362008   0.859011 )  
               a(3) = (   0.362008   0.362008  -0.859011 )  

     reciprocal axes: (cart. coord. in units 2 pi/alat)
               b(1) = (  0.000000  1.381184  0.582065 )  
               b(2) = (  1.381184  0.000000  0.582065 )  
               b(3) = (  1.381184  1.381184  0.000000 )  


     PseudoPot. # 1 for Ca read from file:
     ./pseudopotential/Ca.pbe-spn-kjpaw_psl.1.0.0.UPF
     MD5 check sum: 1e11ab70c77b02a7d7d676f41d47b751
     Pseudo is Projector augmented-wave + core cor, Zval = 10.0
     Generated using &quot;atomic&quot; code by A. Dal Corso  v.6.4.1
     Shape of augmentation charge: PSQ
     Using radial grid of 1169 points,  6 beta functions with: 
                l(1) =   0
                l(2) =   0
                l(3) =   1
                l(4) =   1
                l(5) =   2
                l(6) =   2
     Q(r) pseudized with 0 coefficients 


     PseudoPot. # 2 for Pd read from file:
     ./pseudopotential/Pd.pbe-spn-kjpaw_psl.1.0.0.UPF
     MD5 check sum: 06b619ac5e4bb0d62f7b469c9bdd1b99
     Pseudo is Projector augmented-wave + core cor, Zval = 18.0
     Generated using &quot;atomic&quot; code by A. Dal Corso  v.6.3
     Shape of augmentation charge: PSQ
     Using radial grid of 1235 points,  6 beta functions with: 
                l(1) =   0
                l(2) =   0
                l(3) =   1
                l(4) =   1
                l(5) =   2
                l(6) =   2
     Q(r) pseudized with 0 coefficients 


     PseudoPot. # 3 for As read from file:
     ./pseudopotential/As.pbe-n-kjpaw_psl.1.0.0.UPF
     MD5 check sum: 21b474db91924651be503153fb2dbf55
     Pseudo is Projector augmented-wave + core cor, Zval =  5.0
     Generated using &quot;atomic&quot; code by A. Dal Corso  v.6.3
     Shape of augmentation charge: PSQ
     Using radial grid of 1209 points,  4 beta functions with: 
                l(1) =   0
                l(2) =   0
                l(3) =   1
                l(4) =   1
     Q(r) pseudized with 0 coefficients 


     atomic species   valence    mass     pseudopotential
     Ca               10.00    40.07800     Ca( 1.00)
     Pd               18.00   106.42000     Pd( 1.00)
     As                5.00    74.92200     As( 1.00)

     16 Sym. Ops., with inversion, found


                                    s                        frac. trans.

      isym =  1     identity                                     

 cryst.   s( 1) = (     1          0          0      )
                  (     0          1          0      )
                  (     0          0          1      )

 cart.    s( 1) = (  1.0000000  0.0000000  0.0000000 )
                  (  0.0000000  1.0000000  0.0000000 )
                  (  0.0000000  0.0000000  1.0000000 )


      isym =  2     180 deg rotation - cart. axis [0,0,1]        

 cryst.   s( 2) = (     0          1          0      )
                  (     1          0          0      )
                  (    -1         -1         -1      )

 cart.    s( 2) = ( -1.0000000  0.0000000  0.0000000 )
                  (  0.0000000 -1.0000000  0.0000000 )
                  (  0.0000000  0.0000000  1.0000000 )


      isym =  3     180 deg rotation - cart. axis [0,1,0]        

 cryst.   s( 3) = (     0          0          1      )
                  (    -1         -1         -1      )
                  (     1          0          0      )

 cart.    s( 3) = ( -1.0000000  0.0000000  0.0000000 )
                  (  0.0000000  1.0000000  0.0000000 )
                  (  0.0000000  0.0000000 -1.0000000 )


      isym =  4     180 deg rotation - cart. axis [1,0,0]        

 cryst.   s( 4) = (    -1         -1         -1      )
                  (     0          0          1      )
                  (     0          1          0      )

 cart.    s( 4) = (  1.0000000  0.0000000  0.0000000 )
                  (  0.0000000 -1.0000000  0.0000000 )
                  (  0.0000000  0.0000000 -1.0000000 )


      isym =  5     180 deg rotation - cart. axis [1,1,0]        

 cryst.   s( 5) = (    -1          0          0      )
                  (     0         -1          0      )
                  (     1          1          1      )

 cart.    s( 5) = (  0.0000000  1.0000000  0.0000000 )
                  (  1.0000000  0.0000000  0.0000000 )
                  (  0.0000000  0.0000000 -1.0000000 )


      isym =  6     180 deg rotation - cart. axis [1,-1,0]       

 cryst.   s( 6) = (     0         -1          0      )
                  (    -1          0          0      )
                  (     0          0         -1      )

 cart.    s( 6) = (  0.0000000 -1.0000000  0.0000000 )
                  ( -1.0000000  0.0000000  0.0000000 )
                  (  0.0000000  0.0000000 -1.0000000 )


      isym =  7      90 deg rotation - cart. axis [0,0,-1]       

 cryst.   s( 7) = (     1          1          1      )
                  (     0          0         -1      )
                  (    -1          0          0      )

 cart.    s( 7) = (  0.0000000  1.0000000  0.0000000 )
                  ( -1.0000000  0.0000000  0.0000000 )
                  (  0.0000000  0.0000000  1.0000000 )


      isym =  8      90 deg rotation - cart. axis [0,0,1]        

 cryst.   s( 8) = (     0          0         -1      )
                  (     1          1          1      )
                  (     0         -1          0      )

 cart.    s( 8) = (  0.0000000 -1.0000000  0.0000000 )
                  (  1.0000000  0.0000000  0.0000000 )
                  (  0.0000000  0.0000000  1.0000000 )


      isym =  9     inversion                                    

 cryst.   s( 9) = (    -1          0          0      )
                  (     0         -1          0      )
                  (     0          0         -1      )

 cart.    s( 9) = ( -1.0000000  0.0000000  0.0000000 )
                  (  0.0000000 -1.0000000  0.0000000 )
                  (  0.0000000  0.0000000 -1.0000000 )


      isym = 10     inv. 180 deg rotation - cart. axis [0,0,1]   

 cryst.   s(10) = (     0         -1          0      )
                  (    -1          0          0      )
                  (     1          1          1      )

 cart.    s(10) = (  1.0000000  0.0000000  0.0000000 )
                  (  0.0000000  1.0000000  0.0000000 )
                  (  0.0000000  0.0000000 -1.0000000 )


      isym = 11     inv. 180 deg rotation - cart. axis [0,1,0]   

 cryst.   s(11) = (     0          0         -1      )
                  (     1          1          1      )
                  (    -1          0          0      )

 cart.    s(11) = (  1.0000000  0.0000000  0.0000000 )
                  (  0.0000000 -1.0000000  0.0000000 )
                  (  0.0000000  0.0000000  1.0000000 )


      isym = 12     inv. 180 deg rotation - cart. axis [1,0,0]   

 cryst.   s(12) = (     1          1          1      )
                  (     0          0         -1      )
                  (     0         -1          0      )

 cart.    s(12) = ( -1.0000000  0.0000000  0.0000000 )
                  (  0.0000000  1.0000000  0.0000000 )
                  (  0.0000000  0.0000000  1.0000000 )


      isym = 13     inv. 180 deg rotation - cart. axis [1,1,0]   

 cryst.   s(13) = (     1          0          0      )
                  (     0          1          0      )
                  (    -1         -1         -1      )

 cart.    s(13) = (  0.0000000 -1.0000000  0.0000000 )
                  ( -1.0000000  0.0000000  0.0000000 )
                  (  0.0000000  0.0000000  1.0000000 )


      isym = 14     inv. 180 deg rotation - cart. axis [1,-1,0]  

 cryst.   s(14) = (     0          1          0      )
                  (     1          0          0      )
                  (     0          0          1      )

 cart.    s(14) = (  0.0000000  1.0000000  0.0000000 )
                  (  1.0000000  0.0000000  0.0000000 )
                  (  0.0000000  0.0000000  1.0000000 )


      isym = 15     inv.  90 deg rotation - cart. axis [0,0,-1]  

 cryst.   s(15) = (    -1         -1         -1      )
                  (     0          0          1      )
                  (     1          0          0      )

 cart.    s(15) = (  0.0000000 -1.0000000  0.0000000 )
                  (  1.0000000  0.0000000  0.0000000 )
                  (  0.0000000  0.0000000 -1.0000000 )


      isym = 16     inv.  90 deg rotation - cart. axis [0,0,1]   

 cryst.   s(16) = (     0          0          1      )
                  (    -1         -1         -1      )
                  (     0          1          0      )

 cart.    s(16) = (  0.0000000  1.0000000  0.0000000 )
                  ( -1.0000000  0.0000000  0.0000000 )
                  (  0.0000000  0.0000000 -1.0000000 )


   Cartesian axes

     site n.     atom                  positions (alat units)
         1        As     tau(   1) = (   0.0000000   0.0000000   0.6524144  )
         2        As     tau(   2) = (   0.3620082   0.3620082   0.2065968  )
         3        Ca     tau(   3) = (   0.0000000   0.0000000   0.0000000  )
         4        Pd     tau(   4) = (  -0.0000000   0.3620082   0.4295056  )
         5        Pd     tau(   5) = (   0.3620082  -0.0000000   0.4295056  )

   Crystallographic axes

     site n.     atom                  positions (cryst. coord.)
         1        As     tau(   1) = (  0.3797473  0.3797473  0.0000000  )
         2        As     tau(   2) = (  0.6202527  0.6202527  1.0000000  )
         3        Ca     tau(   3) = (  0.0000000  0.0000000  0.0000000  )
         4        Pd     tau(   4) = (  0.7500000  0.2500000  0.5000000  )
         5        Pd     tau(   5) = (  0.2500000  0.7500000  0.5000000  )

     number of k points=  1328  Marzari-Vanderbilt smearing, width (Ry)=  0.0100
                       cart. coord. in units 2pi/alat
        k(    1) = (   0.0815282   0.0815282   0.0323369), wk =   0.0007716
        k(    2) = (   0.1678523   0.1678523   0.0323369), wk =   0.0007716
        k(    3) = (   0.2541763   0.2541763   0.0323369), wk =   0.0007716
        k(    4) = (   0.3405003   0.3405003   0.0323369), wk =   0.0007716
        k(    5) = (   0.4268243   0.4268243   0.0323369), wk =   0.0007716
        k(    6) = (   0.5131483   0.5131483   0.0323369), wk =   0.0007716
        k(    7) = (   0.5994723   0.5994723   0.0323369), wk =   0.0007716
        k(    8) = (   0.6857964   0.6857964   0.0323369), wk =   0.0007716
        k(    9) = (  -0.6090639  -0.6090639   0.0323369), wk =   0.0007716
        k(   10) = (  -0.5227399  -0.5227399   0.0323369), wk =   0.0007716
        k(   11) = (  -0.4364159  -0.4364159   0.0323369), wk =   0.0007716
        k(   12) = (  -0.3500919  -0.3500919   0.0323369), wk =   0.0007716
        k(   13) = (  -0.2637678  -0.2637678   0.0323369), wk =   0.0007716
        k(   14) = (  -0.1774438  -0.1774438   0.0323369), wk =   0.0007716
        k(   15) = (  -0.0911198  -0.0911198   0.0323369), wk =   0.0007716
        k(   16) = (  -0.0047958  -0.0047958   0.0323369), wk =   0.0007716
        k(   17) = (   0.1582607   0.0815282   0.0646738), wk =   0.0015432
        k(   18) = (   0.2445847   0.1678523   0.0646738), wk =   0.0015432
        k(   19) = (   0.3309087   0.2541763   0.0646738), wk =   0.0015432
        k(   20) = (   0.4172328   0.3405003   0.0646738), wk =   0.0015432
        k(   21) = (   0.5035568   0.4268243   0.0646738), wk =   0.0015432
        k(   22) = (   0.5898808   0.5131483   0.0646738), wk =   0.0015432
        k(   23) = (   0.6762048   0.5994723   0.0646738), wk =   0.0015432
        k(   24) = (   0.7625288   0.6857964   0.0646738), wk =   0.0015432
        k(   25) = (  -0.5323314  -0.6090639   0.0646738), wk =   0.0015432
        k(   26) = (  -0.4460074  -0.5227399   0.0646738), wk =   0.0015432
        k(   27) = (  -0.3596834  -0.4364159   0.0646738), wk =   0.0015432
        k(   28) = (  -0.2733594  -0.3500919   0.0646738), wk =   0.0015432
        k(   29) = (  -0.1870354  -0.2637678   0.0646738), wk =   0.0015432
        k(   30) = (  -0.1007114  -0.1774438   0.0646738), wk =   0.0015432
        k(   31) = (  -0.0143873  -0.0911198   0.0646738), wk =   0.0015432
        k(   32) = (   0.0719367  -0.0047958   0.0646738), wk =   0.0015432
        k(   33) = (   0.2349932   0.0815282   0.0970108), wk =   0.0015432
        k(   34) = (   0.3213172   0.1678523   0.0970108), wk =   0.0015432
        k(   35) = (   0.4076412   0.2541763   0.0970108), wk =   0.0015432
        k(   36) = (   0.4939652   0.3405003   0.0970108), wk =   0.0015432
        k(   37) = (   0.5802892   0.4268243   0.0970108), wk =   0.0015432
        k(   38) = (   0.6666133   0.5131483   0.0970108), wk =   0.0015432
        k(   39) = (   0.7529373   0.5994723   0.0970108), wk =   0.0015432
        k(   40) = (   0.8392613   0.6857964   0.0970108), wk =   0.0015432
        k(   41) = (  -0.4555990  -0.6090639   0.0970108), wk =   0.0015432
        k(   42) = (  -0.3692750  -0.5227399   0.0970108), wk =   0.0015432
        k(   43) = (  -0.2829509  -0.4364159   0.0970108), wk =   0.0015432
        k(   44) = (  -0.1966269  -0.3500919   0.0970108), wk =   0.0015432
        k(   45) = (  -0.1103029  -0.2637678   0.0970108), wk =   0.0015432
        k(   46) = (  -0.0239789  -0.1774438   0.0970108), wk =   0.0015432
        k(   47) = (   0.0623451  -0.0911198   0.0970108), wk =   0.0015432
        k(   48) = (   0.1486691  -0.0047958   0.0970108), wk =   0.0015432
        k(   49) = (   0.3117256   0.0815282   0.1293477), wk =   0.0015432
        k(   50) = (   0.3980496   0.1678523   0.1293477), wk =   0.0015432
        k(   51) = (   0.4843737   0.2541763   0.1293477), wk =   0.0015432
        k(   52) = (   0.5706977   0.3405003   0.1293477), wk =   0.0015432
        k(   53) = (   0.6570217   0.4268243   0.1293477), wk =   0.0015432
        k(   54) = (   0.7433457   0.5131483   0.1293477), wk =   0.0015432
        k(   55) = (   0.8296697   0.5994723   0.1293477), wk =   0.0015432
        k(   56) = (   0.9159938   0.6857964   0.1293477), wk =   0.0015432
        k(   57) = (  -0.3788665  -0.6090639   0.1293477), wk =   0.0015432
        k(   58) = (  -0.2925425  -0.5227399   0.1293477), wk =   0.0015432
        k(   59) = (  -0.2062185  -0.4364159   0.1293477), wk =   0.0015432
        k(   60) = (  -0.1198945  -0.3500919   0.1293477), wk =   0.0015432
        k(   61) = (  -0.0335705  -0.2637678   0.1293477), wk =   0.0015432
        k(   62) = (   0.0527536  -0.1774438   0.1293477), wk =   0.0015432
        k(   63) = (   0.1390776  -0.0911198   0.1293477), wk =   0.0015432
        k(   64) = (   0.2254016  -0.0047958   0.1293477), wk =   0.0015432
        k(   65) = (   0.3884581   0.0815282   0.1616846), wk =   0.0015432
        k(   66) = (   0.4747821   0.1678523   0.1616846), wk =   0.0015432
        k(   67) = (   0.5611061   0.2541763   0.1616846), wk =   0.0015432
        k(   68) = (   0.6474301   0.3405003   0.1616846), wk =   0.0015432
        k(   69) = (   0.7337542   0.4268243   0.1616846), wk =   0.0015432
        k(   70) = (   0.8200782   0.5131483   0.1616846), wk =   0.0015432
        k(   71) = (   0.9064022   0.5994723   0.1616846), wk =   0.0015432
        k(   72) = (   0.9927262   0.6857964   0.1616846), wk =   0.0015432
        k(   73) = (  -0.3021341  -0.6090639   0.1616846), wk =   0.0015432
        k(   74) = (  -0.2158100  -0.5227399   0.1616846), wk =   0.0015432
        k(   75) = (  -0.1294860  -0.4364159   0.1616846), wk =   0.0015432
        k(   76) = (  -0.0431620  -0.3500919   0.1616846), wk =   0.0015432
        k(   77) = (   0.0431620  -0.2637678   0.1616846), wk =   0.0015432
        k(   78) = (   0.1294860  -0.1774438   0.1616846), wk =   0.0015432
        k(   79) = (   0.2158100  -0.0911198   0.1616846), wk =   0.0015432
        k(   80) = (   0.3021341  -0.0047958   0.1616846), wk =   0.0015432
        k(   81) = (   0.4651905   0.0815282   0.1940215), wk =   0.0015432
        k(   82) = (   0.5515146   0.1678523   0.1940215), wk =   0.0015432
        k(   83) = (   0.6378386   0.2541763   0.1940215), wk =   0.0015432
        k(   84) = (   0.7241626   0.3405003   0.1940215), wk =   0.0015432
        k(   85) = (   0.8104866   0.4268243   0.1940215), wk =   0.0015432
        k(   86) = (   0.8968106   0.5131483   0.1940215), wk =   0.0015432
        k(   87) = (   0.9831347   0.5994723   0.1940215), wk =   0.0015432
        k(   88) = (   1.0694587   0.6857964   0.1940215), wk =   0.0015432
        k(   89) = (  -0.2254016  -0.6090639   0.1940215), wk =   0.0015432
        k(   90) = (  -0.1390776  -0.5227399   0.1940215), wk =   0.0015432
        k(   91) = (  -0.0527536  -0.4364159   0.1940215), wk =   0.0015432
        k(   92) = (   0.0335705  -0.3500919   0.1940215), wk =   0.0015432
        k(   93) = (   0.1198945  -0.2637678   0.1940215), wk =   0.0015432
        k(   94) = (   0.2062185  -0.1774438   0.1940215), wk =   0.0015432
        k(   95) = (   0.2925425  -0.0911198   0.1940215), wk =   0.0015432
        k(   96) = (   0.3788665  -0.0047958   0.1940215), wk =   0.0015432
        k(   97) = (   0.5419230   0.0815282   0.2263585), wk =   0.0015432
        k(   98) = (   0.6282470   0.1678523   0.2263585), wk =   0.0015432
        k(   99) = (   0.7145710   0.2541763   0.2263585), wk =   0.0015432
        k(  100) = (   0.8008951   0.3405003   0.2263585), wk =   0.0015432
        k(  101) = (   0.8872191   0.4268243   0.2263585), wk =   0.0015432
        k(  102) = (   0.9735431   0.5131483   0.2263585), wk =   0.0015432
        k(  103) = (   1.0598671   0.5994723   0.2263585), wk =   0.0015432
        k(  104) = (   1.1461911   0.6857964   0.2263585), wk =   0.0015432
        k(  105) = (  -0.1486691  -0.6090639   0.2263585), wk =   0.0015432
        k(  106) = (  -0.0623451  -0.5227399   0.2263585), wk =   0.0015432
        k(  107) = (   0.0239789  -0.4364159   0.2263585), wk =   0.0015432
        k(  108) = (   0.1103029  -0.3500919   0.2263585), wk =   0.0015432
        k(  109) = (   0.1966269  -0.2637678   0.2263585), wk =   0.0015432
        k(  110) = (   0.2829509  -0.1774438   0.2263585), wk =   0.0015432
        k(  111) = (   0.3692750  -0.0911198   0.2263585), wk =   0.0015432
        k(  112) = (   0.4555990  -0.0047958   0.2263585), wk =   0.0015432
        k(  113) = (   0.6186555   0.0815282   0.2586954), wk =   0.0015432
        k(  114) = (   0.7049795   0.1678523   0.2586954), wk =   0.0015432
        k(  115) = (   0.7913035   0.2541763   0.2586954), wk =   0.0015432
        k(  116) = (   0.8776275   0.3405003   0.2586954), wk =   0.0015432
        k(  117) = (   0.9639515   0.4268243   0.2586954), wk =   0.0015432
        k(  118) = (   1.0502756   0.5131483   0.2586954), wk =   0.0015432
        k(  119) = (   1.1365996   0.5994723   0.2586954), wk =   0.0015432
        k(  120) = (   1.2229236   0.6857964   0.2586954), wk =   0.0015432
        k(  121) = (  -0.0719367  -0.6090639   0.2586954), wk =   0.0015432
        k(  122) = (   0.0143873  -0.5227399   0.2586954), wk =   0.0015432
        k(  123) = (   0.1007114  -0.4364159   0.2586954), wk =   0.0015432
        k(  124) = (   0.1870354  -0.3500919   0.2586954), wk =   0.0015432
        k(  125) = (   0.2733594  -0.2637678   0.2586954), wk =   0.0015432
        k(  126) = (   0.3596834  -0.1774438   0.2586954), wk =   0.0015432
        k(  127) = (   0.4460074  -0.0911198   0.2586954), wk =   0.0015432
        k(  128) = (   0.5323314  -0.0047958   0.2586954), wk =   0.0015432
        k(  129) = (   0.6953879   0.0815282   0.2910323), wk =   0.0030864
        k(  130) = (   0.7817119   0.1678523   0.2910323), wk =   0.0030864
        k(  131) = (   0.8680360   0.2541763   0.2910323), wk =   0.0030864
        k(  132) = (   0.9543600   0.3405003   0.2910323), wk =   0.0030864
        k(  133) = (   0.0047958  -0.6090639   0.2910323), wk =   0.0030864
        k(  134) = (   0.0911198  -0.5227399   0.2910323), wk =   0.0030864
        k(  135) = (   0.1774438  -0.4364159   0.2910323), wk =   0.0030864
        k(  136) = (   0.2637678  -0.3500919   0.2910323), wk =   0.0030864
        k(  137) = (  -0.6090639   0.0815282  -0.2586954), wk =   0.0015432
        k(  138) = (  -0.5227399   0.1678523  -0.2586954), wk =   0.0015432
        k(  139) = (  -0.4364159   0.2541763  -0.2586954), wk =   0.0015432
        k(  140) = (  -0.3500919   0.3405003  -0.2586954), wk =   0.0015432
        k(  141) = (  -0.2637678   0.4268243  -0.2586954), wk =   0.0015432
        k(  142) = (  -0.1774438   0.5131483  -0.2586954), wk =   0.0015432
        k(  143) = (  -0.0911198   0.5994723  -0.2586954), wk =   0.0015432
        k(  144) = (  -0.0047958   0.6857964  -0.2586954), wk =   0.0015432
        k(  145) = (  -1.2996561  -0.6090639  -0.2586954), wk =   0.0015432
        k(  146) = (  -1.2133320  -0.5227399  -0.2586954), wk =   0.0015432
        k(  147) = (  -1.1270080  -0.4364159  -0.2586954), wk =   0.0015432
        k(  148) = (  -1.0406840  -0.3500919  -0.2586954), wk =   0.0015432
        k(  149) = (  -0.9543600  -0.2637678  -0.2586954), wk =   0.0015432
        k(  150) = (  -0.8680360  -0.1774438  -0.2586954), wk =   0.0015432
        k(  151) = (  -0.7817119  -0.0911198  -0.2586954), wk =   0.0015432
        k(  152) = (  -0.6953879  -0.0047958  -0.2586954), wk =   0.0015432
        k(  153) = (  -0.5323314   0.0815282  -0.2263585), wk =   0.0015432
        k(  154) = (  -0.4460074   0.1678523  -0.2263585), wk =   0.0015432
        k(  155) = (  -0.3596834   0.2541763  -0.2263585), wk =   0.0015432
        k(  156) = (  -0.2733594   0.3405003  -0.2263585), wk =   0.0015432
        k(  157) = (  -0.1870354   0.4268243  -0.2263585), wk =   0.0015432
        k(  158) = (  -0.1007114   0.5131483  -0.2263585), wk =   0.0015432
        k(  159) = (  -0.0143873   0.5994723  -0.2263585), wk =   0.0015432
        k(  160) = (   0.0719367   0.6857964  -0.2263585), wk =   0.0015432
        k(  161) = (  -1.2229236  -0.6090639  -0.2263585), wk =   0.0015432
        k(  162) = (  -1.1365996  -0.5227399  -0.2263585), wk =   0.0015432
        k(  163) = (  -1.0502756  -0.4364159  -0.2263585), wk =   0.0015432
        k(  164) = (  -0.9639515  -0.3500919  -0.2263585), wk =   0.0015432
        k(  165) = (  -0.8776275  -0.2637678  -0.2263585), wk =   0.0015432
        k(  166) = (  -0.7913035  -0.1774438  -0.2263585), wk =   0.0015432
        k(  167) = (  -0.7049795  -0.0911198  -0.2263585), wk =   0.0015432
        k(  168) = (  -0.6186555  -0.0047958  -0.2263585), wk =   0.0015432
        k(  169) = (  -0.4555990   0.0815282  -0.1940215), wk =   0.0015432
        k(  170) = (  -0.3692750   0.1678523  -0.1940215), wk =   0.0015432
        k(  171) = (  -0.2829509   0.2541763  -0.1940215), wk =   0.0015432
        k(  172) = (  -0.1966269   0.3405003  -0.1940215), wk =   0.0015432
        k(  173) = (  -0.1103029   0.4268243  -0.1940215), wk =   0.0015432
        k(  174) = (  -0.0239789   0.5131483  -0.1940215), wk =   0.0015432
        k(  175) = (   0.0623451   0.5994723  -0.1940215), wk =   0.0015432
        k(  176) = (   0.1486691   0.6857964  -0.1940215), wk =   0.0015432
        k(  177) = (  -1.1461911  -0.6090639  -0.1940215), wk =   0.0015432
        k(  178) = (  -1.0598671  -0.5227399  -0.1940215), wk =   0.0015432
        k(  179) = (  -0.9735431  -0.4364159  -0.1940215), wk =   0.0015432
        k(  180) = (  -0.8872191  -0.3500919  -0.1940215), wk =   0.0015432
        k(  181) = (  -0.8008951  -0.2637678  -0.1940215), wk =   0.0015432
        k(  182) = (  -0.7145710  -0.1774438  -0.1940215), wk =   0.0015432
        k(  183) = (  -0.6282470  -0.0911198  -0.1940215), wk =   0.0015432
        k(  184) = (  -0.5419230  -0.0047958  -0.1940215), wk =   0.0015432
        k(  185) = (  -0.3788665   0.0815282  -0.1616846), wk =   0.0015432
        k(  186) = (  -0.2925425   0.1678523  -0.1616846), wk =   0.0015432
        k(  187) = (  -0.2062185   0.2541763  -0.1616846), wk =   0.0015432
        k(  188) = (  -0.1198945   0.3405003  -0.1616846), wk =   0.0015432
        k(  189) = (  -0.0335705   0.4268243  -0.1616846), wk =   0.0015432
        k(  190) = (   0.0527536   0.5131483  -0.1616846), wk =   0.0015432
        k(  191) = (   0.1390776   0.5994723  -0.1616846), wk =   0.0015432
        k(  192) = (   0.2254016   0.6857964  -0.1616846), wk =   0.0015432
        k(  193) = (  -1.0694587  -0.6090639  -0.1616846), wk =   0.0015432
        k(  194) = (  -0.9831347  -0.5227399  -0.1616846), wk =   0.0015432
        k(  195) = (  -0.8968106  -0.4364159  -0.1616846), wk =   0.0015432
        k(  196) = (  -0.8104866  -0.3500919  -0.1616846), wk =   0.0015432
        k(  197) = (  -0.7241626  -0.2637678  -0.1616846), wk =   0.0015432
        k(  198) = (  -0.6378386  -0.1774438  -0.1616846), wk =   0.0015432
        k(  199) = (  -0.5515146  -0.0911198  -0.1616846), wk =   0.0015432
        k(  200) = (  -0.4651905  -0.0047958  -0.1616846), wk =   0.0015432
        k(  201) = (  -0.3021341   0.0815282  -0.1293477), wk =   0.0015432
        k(  202) = (  -0.2158100   0.1678523  -0.1293477), wk =   0.0015432
        k(  203) = (  -0.1294860   0.2541763  -0.1293477), wk =   0.0015432
        k(  204) = (  -0.0431620   0.3405003  -0.1293477), wk =   0.0015432
        k(  205) = (   0.0431620   0.4268243  -0.1293477), wk =   0.0015432
        k(  206) = (   0.1294860   0.5131483  -0.1293477), wk =   0.0015432
        k(  207) = (   0.2158100   0.5994723  -0.1293477), wk =   0.0015432
        k(  208) = (   0.3021341   0.6857964  -0.1293477), wk =   0.0015432
        k(  209) = (  -0.9927262  -0.6090639  -0.1293477), wk =   0.0015432
        k(  210) = (  -0.9064022  -0.5227399  -0.1293477), wk =   0.0015432
        k(  211) = (  -0.8200782  -0.4364159  -0.1293477), wk =   0.0015432
        k(  212) = (  -0.7337542  -0.3500919  -0.1293477), wk =   0.0015432
        k(  213) = (  -0.6474301  -0.2637678  -0.1293477), wk =   0.0015432
        k(  214) = (  -0.5611061  -0.1774438  -0.1293477), wk =   0.0015432
        k(  215) = (  -0.4747821  -0.0911198  -0.1293477), wk =   0.0015432
        k(  216) = (  -0.3884581  -0.0047958  -0.1293477), wk =   0.0015432
        k(  217) = (  -0.2254016   0.0815282  -0.0970108), wk =   0.0015432
        k(  218) = (  -0.1390776   0.1678523  -0.0970108), wk =   0.0015432
        k(  219) = (  -0.0527536   0.2541763  -0.0970108), wk =   0.0015432
        k(  220) = (   0.0335705   0.3405003  -0.0970108), wk =   0.0015432
        k(  221) = (   0.1198945   0.4268243  -0.0970108), wk =   0.0015432
        k(  222) = (   0.2062185   0.5131483  -0.0970108), wk =   0.0015432
        k(  223) = (   0.2925425   0.5994723  -0.0970108), wk =   0.0015432
        k(  224) = (   0.3788665   0.6857964  -0.0970108), wk =   0.0015432
        k(  225) = (  -0.9159938  -0.6090639  -0.0970108), wk =   0.0015432
        k(  226) = (  -0.8296697  -0.5227399  -0.0970108), wk =   0.0015432
        k(  227) = (  -0.7433457  -0.4364159  -0.0970108), wk =   0.0015432
        k(  228) = (  -0.6570217  -0.3500919  -0.0970108), wk =   0.0015432
        k(  229) = (  -0.5706977  -0.2637678  -0.0970108), wk =   0.0015432
        k(  230) = (  -0.4843737  -0.1774438  -0.0970108), wk =   0.0015432
        k(  231) = (  -0.3980496  -0.0911198  -0.0970108), wk =   0.0015432
        k(  232) = (  -0.3117256  -0.0047958  -0.0970108), wk =   0.0015432
        k(  233) = (  -0.1486691   0.0815282  -0.0646738), wk =   0.0015432
        k(  234) = (  -0.0623451   0.1678523  -0.0646738), wk =   0.0015432
        k(  235) = (   0.0239789   0.2541763  -0.0646738), wk =   0.0015432
        k(  236) = (   0.1103029   0.3405003  -0.0646738), wk =   0.0015432
        k(  237) = (   0.1966269   0.4268243  -0.0646738), wk =   0.0015432
        k(  238) = (   0.2829509   0.5131483  -0.0646738), wk =   0.0015432
        k(  239) = (   0.3692750   0.5994723  -0.0646738), wk =   0.0015432
        k(  240) = (   0.4555990   0.6857964  -0.0646738), wk =   0.0015432
        k(  241) = (  -0.8392613  -0.6090639  -0.0646738), wk =   0.0015432
        k(  242) = (  -0.7529373  -0.5227399  -0.0646738), wk =   0.0015432
        k(  243) = (  -0.6666133  -0.4364159  -0.0646738), wk =   0.0015432
        k(  244) = (  -0.5802892  -0.3500919  -0.0646738), wk =   0.0015432
        k(  245) = (  -0.4939652  -0.2637678  -0.0646738), wk =   0.0015432
        k(  246) = (  -0.4076412  -0.1774438  -0.0646738), wk =   0.0015432
        k(  247) = (  -0.3213172  -0.0911198  -0.0646738), wk =   0.0015432
        k(  248) = (  -0.2349932  -0.0047958  -0.0646738), wk =   0.0015432
        k(  249) = (  -0.0719367   0.0815282  -0.0323369), wk =   0.0015432
        k(  250) = (   0.0143873   0.1678523  -0.0323369), wk =   0.0015432
        k(  251) = (   0.1007114   0.2541763  -0.0323369), wk =   0.0015432
        k(  252) = (   0.1870354   0.3405003  -0.0323369), wk =   0.0015432
        k(  253) = (   0.2733594   0.4268243  -0.0323369), wk =   0.0015432
        k(  254) = (   0.3596834   0.5131483  -0.0323369), wk =   0.0015432
        k(  255) = (   0.4460074   0.5994723  -0.0323369), wk =   0.0015432
        k(  256) = (   0.5323314   0.6857964  -0.0323369), wk =   0.0015432
        k(  257) = (  -0.7625288  -0.6090639  -0.0323369), wk =   0.0015432
        k(  258) = (  -0.6762048  -0.5227399  -0.0323369), wk =   0.0015432
        k(  259) = (  -0.5898808  -0.4364159  -0.0323369), wk =   0.0015432
        k(  260) = (  -0.5035568  -0.3500919  -0.0323369), wk =   0.0015432
        k(  261) = (  -0.4172328  -0.2637678  -0.0323369), wk =   0.0015432
        k(  262) = (  -0.3309087  -0.1774438  -0.0323369), wk =   0.0015432
        k(  263) = (  -0.2445847  -0.0911198  -0.0323369), wk =   0.0015432
        k(  264) = (  -0.1582607  -0.0047958  -0.0323369), wk =   0.0015432
        k(  265) = (   0.0047958   0.0815282  -0.0000000), wk =   0.0015432
        k(  266) = (   0.0911198   0.1678523  -0.0000000), wk =   0.0015432
        k(  267) = (   0.1774438   0.2541763  -0.0000000), wk =   0.0015432
        k(  268) = (   0.2637678   0.3405003  -0.0000000), wk =   0.0015432
        k(  269) = (   0.3500919   0.4268243  -0.0000000), wk =   0.0015432
        k(  270) = (   0.4364159   0.5131483  -0.0000000), wk =   0.0015432
        k(  271) = (   0.5227399   0.5994723  -0.0000000), wk =   0.0015432
        k(  272) = (   0.6090639   0.6857964  -0.0000000), wk =   0.0015432
        k(  273) = (   0.1582607   0.1582607   0.0970108), wk =   0.0007716
        k(  274) = (   0.2445847   0.2445847   0.0970108), wk =   0.0007716
        k(  275) = (   0.3309087   0.3309087   0.0970108), wk =   0.0007716
        k(  276) = (   0.4172328   0.4172328   0.0970108), wk =   0.0007716
        k(  277) = (   0.5035568   0.5035568   0.0970108), wk =   0.0007716
        k(  278) = (   0.5898808   0.5898808   0.0970108), wk =   0.0007716
        k(  279) = (   0.6762048   0.6762048   0.0970108), wk =   0.0007716
        k(  280) = (   0.7625288   0.7625288   0.0970108), wk =   0.0007716
        k(  281) = (  -0.5323314  -0.5323314   0.0970108), wk =   0.0007716
        k(  282) = (  -0.4460074  -0.4460074   0.0970108), wk =   0.0007716
        k(  283) = (  -0.3596834  -0.3596834   0.0970108), wk =   0.0007716
        k(  284) = (  -0.2733594  -0.2733594   0.0970108), wk =   0.0007716
        k(  285) = (  -0.1870354  -0.1870354   0.0970108), wk =   0.0007716
        k(  286) = (  -0.1007114  -0.1007114   0.0970108), wk =   0.0007716
        k(  287) = (  -0.0143873  -0.0143873   0.0970108), wk =   0.0007716
        k(  288) = (   0.0719367   0.0719367   0.0970108), wk =   0.0007716
        k(  289) = (   0.2349932   0.1582607   0.1293477), wk =   0.0015432
        k(  290) = (   0.3213172   0.2445847   0.1293477), wk =   0.0015432
        k(  291) = (   0.4076412   0.3309087   0.1293477), wk =   0.0015432
        k(  292) = (   0.4939652   0.4172328   0.1293477), wk =   0.0015432
        k(  293) = (   0.5802892   0.5035568   0.1293477), wk =   0.0015432
        k(  294) = (   0.6666133   0.5898808   0.1293477), wk =   0.0015432
        k(  295) = (   0.7529373   0.6762048   0.1293477), wk =   0.0015432
        k(  296) = (   0.8392613   0.7625288   0.1293477), wk =   0.0015432
        k(  297) = (  -0.4555990  -0.5323314   0.1293477), wk =   0.0015432
        k(  298) = (  -0.3692750  -0.4460074   0.1293477), wk =   0.0015432
        k(  299) = (  -0.2829509  -0.3596834   0.1293477), wk =   0.0015432
        k(  300) = (  -0.1966269  -0.2733594   0.1293477), wk =   0.0015432
        k(  301) = (  -0.1103029  -0.1870354   0.1293477), wk =   0.0015432
        k(  302) = (  -0.0239789  -0.1007114   0.1293477), wk =   0.0015432
        k(  303) = (   0.0623451  -0.0143873   0.1293477), wk =   0.0015432
        k(  304) = (   0.1486691   0.0719367   0.1293477), wk =   0.0015432
        k(  305) = (   0.3117256   0.1582607   0.1616846), wk =   0.0015432
        k(  306) = (   0.3980496   0.2445847   0.1616846), wk =   0.0015432
        k(  307) = (   0.4843737   0.3309087   0.1616846), wk =   0.0015432
        k(  308) = (   0.5706977   0.4172328   0.1616846), wk =   0.0015432
        k(  309) = (   0.6570217   0.5035568   0.1616846), wk =   0.0015432
        k(  310) = (   0.7433457   0.5898808   0.1616846), wk =   0.0015432
        k(  311) = (   0.8296697   0.6762048   0.1616846), wk =   0.0015432
        k(  312) = (   0.9159938   0.7625288   0.1616846), wk =   0.0015432
        k(  313) = (  -0.3788665  -0.5323314   0.1616846), wk =   0.0015432
        k(  314) = (  -0.2925425  -0.4460074   0.1616846), wk =   0.0015432
        k(  315) = (  -0.2062185  -0.3596834   0.1616846), wk =   0.0015432
        k(  316) = (  -0.1198945  -0.2733594   0.1616846), wk =   0.0015432
        k(  317) = (  -0.0335705  -0.1870354   0.1616846), wk =   0.0015432
        k(  318) = (   0.0527536  -0.1007114   0.1616846), wk =   0.0015432
        k(  319) = (   0.1390776  -0.0143873   0.1616846), wk =   0.0015432
        k(  320) = (   0.2254016   0.0719367   0.1616846), wk =   0.0015432
        k(  321) = (   0.3884581   0.1582607   0.1940215), wk =   0.0015432
        k(  322) = (   0.4747821   0.2445847   0.1940215), wk =   0.0015432
        k(  323) = (   0.5611061   0.3309087   0.1940215), wk =   0.0015432
        k(  324) = (   0.6474301   0.4172328   0.1940215), wk =   0.0015432
        k(  325) = (   0.7337542   0.5035568   0.1940215), wk =   0.0015432
        k(  326) = (   0.8200782   0.5898808   0.1940215), wk =   0.0015432
        k(  327) = (   0.9064022   0.6762048   0.1940215), wk =   0.0015432
        k(  328) = (   0.9927262   0.7625288   0.1940215), wk =   0.0015432
        k(  329) = (  -0.3021341  -0.5323314   0.1940215), wk =   0.0015432
        k(  330) = (  -0.2158100  -0.4460074   0.1940215), wk =   0.0015432
        k(  331) = (  -0.1294860  -0.3596834   0.1940215), wk =   0.0015432
        k(  332) = (  -0.0431620  -0.2733594   0.1940215), wk =   0.0015432
        k(  333) = (   0.0431620  -0.1870354   0.1940215), wk =   0.0015432
        k(  334) = (   0.1294860  -0.1007114   0.1940215), wk =   0.0015432
        k(  335) = (   0.2158100  -0.0143873   0.1940215), wk =   0.0015432
        k(  336) = (   0.3021341   0.0719367   0.1940215), wk =   0.0015432
        k(  337) = (   0.4651905   0.1582607   0.2263585), wk =   0.0015432
        k(  338) = (   0.5515146   0.2445847   0.2263585), wk =   0.0015432
        k(  339) = (   0.6378386   0.3309087   0.2263585), wk =   0.0015432
        k(  340) = (   0.7241626   0.4172328   0.2263585), wk =   0.0015432
        k(  341) = (   0.8104866   0.5035568   0.2263585), wk =   0.0015432
        k(  342) = (   0.8968106   0.5898808   0.2263585), wk =   0.0015432
        k(  343) = (   0.9831347   0.6762048   0.2263585), wk =   0.0015432
        k(  344) = (   1.0694587   0.7625288   0.2263585), wk =   0.0015432
        k(  345) = (  -0.2254016  -0.5323314   0.2263585), wk =   0.0015432
        k(  346) = (  -0.1390776  -0.4460074   0.2263585), wk =   0.0015432
        k(  347) = (  -0.0527536  -0.3596834   0.2263585), wk =   0.0015432
        k(  348) = (   0.0335705  -0.2733594   0.2263585), wk =   0.0015432
        k(  349) = (   0.1198945  -0.1870354   0.2263585), wk =   0.0015432
        k(  350) = (   0.2062185  -0.1007114   0.2263585), wk =   0.0015432
        k(  351) = (   0.2925425  -0.0143873   0.2263585), wk =   0.0015432
        k(  352) = (   0.3788665   0.0719367   0.2263585), wk =   0.0015432
        k(  353) = (   0.5419230   0.1582607   0.2586954), wk =   0.0015432
        k(  354) = (   0.6282470   0.2445847   0.2586954), wk =   0.0015432
        k(  355) = (   0.7145710   0.3309087   0.2586954), wk =   0.0015432
        k(  356) = (   0.8008951   0.4172328   0.2586954), wk =   0.0015432
        k(  357) = (   0.8872191   0.5035568   0.2586954), wk =   0.0015432
        k(  358) = (   0.9735431   0.5898808   0.2586954), wk =   0.0015432
        k(  359) = (   1.0598671   0.6762048   0.2586954), wk =   0.0015432
        k(  360) = (   1.1461911   0.7625288   0.2586954), wk =   0.0015432
        k(  361) = (  -0.1486691  -0.5323314   0.2586954), wk =   0.0015432
        k(  362) = (  -0.0623451  -0.4460074   0.2586954), wk =   0.0015432
        k(  363) = (   0.0239789  -0.3596834   0.2586954), wk =   0.0015432
        k(  364) = (   0.1103029  -0.2733594   0.2586954), wk =   0.0015432
        k(  365) = (   0.1966269  -0.1870354   0.2586954), wk =   0.0015432
        k(  366) = (   0.2829509  -0.1007114   0.2586954), wk =   0.0015432
        k(  367) = (   0.3692750  -0.0143873   0.2586954), wk =   0.0015432
        k(  368) = (   0.4555990   0.0719367   0.2586954), wk =   0.0015432
        k(  369) = (   0.6186555   0.1582607   0.2910323), wk =   0.0030864
        k(  370) = (   0.7049795   0.2445847   0.2910323), wk =   0.0030864
        k(  371) = (   0.7913035   0.3309087   0.2910323), wk =   0.0030864
        k(  372) = (   0.8776275   0.4172328   0.2910323), wk =   0.0030864
        k(  373) = (  -0.0719367  -0.5323314   0.2910323), wk =   0.0030864
        k(  374) = (   0.0143873  -0.4460074   0.2910323), wk =   0.0030864
        k(  375) = (   0.1007114  -0.3596834   0.2910323), wk =   0.0030864
        k(  376) = (   0.1870354  -0.2733594   0.2910323), wk =   0.0030864
        k(  377) = (   0.6953879   0.1582607   0.3233692), wk =   0.0015432
        k(  378) = (   0.7817119   0.2445847   0.3233692), wk =   0.0015432
        k(  379) = (   0.8680360   0.3309087   0.3233692), wk =   0.0015432
        k(  380) = (   0.9543600   0.4172328   0.3233692), wk =   0.0015432
        k(  381) = (   1.0406840   0.5035568   0.3233692), wk =   0.0015432
        k(  382) = (   1.1270080   0.5898808   0.3233692), wk =   0.0015432
        k(  383) = (   1.2133320   0.6762048   0.3233692), wk =   0.0015432
        k(  384) = (   1.2996561   0.7625288   0.3233692), wk =   0.0015432
        k(  385) = (   0.0047958  -0.5323314   0.3233692), wk =   0.0015432
        k(  386) = (   0.0911198  -0.4460074   0.3233692), wk =   0.0015432
        k(  387) = (   0.1774438  -0.3596834   0.3233692), wk =   0.0015432
        k(  388) = (   0.2637678  -0.2733594   0.3233692), wk =   0.0015432
        k(  389) = (   0.3500919  -0.1870354   0.3233692), wk =   0.0015432
        k(  390) = (   0.4364159  -0.1007114   0.3233692), wk =   0.0015432
        k(  391) = (   0.5227399  -0.0143873   0.3233692), wk =   0.0015432
        k(  392) = (   0.6090639   0.0719367   0.3233692), wk =   0.0015432
        k(  393) = (  -0.6090639   0.1582607  -0.2263585), wk =   0.0015432
        k(  394) = (  -0.5227399   0.2445847  -0.2263585), wk =   0.0015432
        k(  395) = (  -0.4364159   0.3309087  -0.2263585), wk =   0.0015432
        k(  396) = (  -0.3500919   0.4172328  -0.2263585), wk =   0.0015432
        k(  397) = (  -0.2637678   0.5035568  -0.2263585), wk =   0.0015432
        k(  398) = (  -0.1774438   0.5898808  -0.2263585), wk =   0.0015432
        k(  399) = (  -0.0911198   0.6762048  -0.2263585), wk =   0.0015432
        k(  400) = (  -0.0047958   0.7625288  -0.2263585), wk =   0.0015432
        k(  401) = (  -1.2996561  -0.5323314  -0.2263585), wk =   0.0015432
        k(  402) = (  -1.2133320  -0.4460074  -0.2263585), wk =   0.0015432
        k(  403) = (  -1.1270080  -0.3596834  -0.2263585), wk =   0.0015432
        k(  404) = (  -1.0406840  -0.2733594  -0.2263585), wk =   0.0015432
        k(  405) = (  -0.9543600  -0.1870354  -0.2263585), wk =   0.0015432
        k(  406) = (  -0.8680360  -0.1007114  -0.2263585), wk =   0.0015432
        k(  407) = (  -0.7817119  -0.0143873  -0.2263585), wk =   0.0015432
        k(  408) = (  -0.6953879   0.0719367  -0.2263585), wk =   0.0015432
        k(  409) = (  -0.5323314   0.1582607  -0.1940215), wk =   0.0015432
        k(  410) = (  -0.4460074   0.2445847  -0.1940215), wk =   0.0015432
        k(  411) = (  -0.3596834   0.3309087  -0.1940215), wk =   0.0015432
        k(  412) = (  -0.2733594   0.4172328  -0.1940215), wk =   0.0015432
        k(  413) = (  -0.1870354   0.5035568  -0.1940215), wk =   0.0015432
        k(  414) = (  -0.1007114   0.5898808  -0.1940215), wk =   0.0015432
        k(  415) = (  -0.0143873   0.6762048  -0.1940215), wk =   0.0015432
        k(  416) = (   0.0719367   0.7625288  -0.1940215), wk =   0.0015432
        k(  417) = (  -1.2229236  -0.5323314  -0.1940215), wk =   0.0015432
        k(  418) = (  -1.1365996  -0.4460074  -0.1940215), wk =   0.0015432
        k(  419) = (  -1.0502756  -0.3596834  -0.1940215), wk =   0.0015432
        k(  420) = (  -0.9639515  -0.2733594  -0.1940215), wk =   0.0015432
        k(  421) = (  -0.8776275  -0.1870354  -0.1940215), wk =   0.0015432
        k(  422) = (  -0.7913035  -0.1007114  -0.1940215), wk =   0.0015432
        k(  423) = (  -0.7049795  -0.0143873  -0.1940215), wk =   0.0015432
        k(  424) = (  -0.6186555   0.0719367  -0.1940215), wk =   0.0015432
        k(  425) = (  -0.4555990   0.1582607  -0.1616846), wk =   0.0015432
        k(  426) = (  -0.3692750   0.2445847  -0.1616846), wk =   0.0015432
        k(  427) = (  -0.2829509   0.3309087  -0.1616846), wk =   0.0015432
        k(  428) = (  -0.1966269   0.4172328  -0.1616846), wk =   0.0015432
        k(  429) = (  -0.1103029   0.5035568  -0.1616846), wk =   0.0015432
        k(  430) = (  -0.0239789   0.5898808  -0.1616846), wk =   0.0015432
        k(  431) = (   0.0623451   0.6762048  -0.1616846), wk =   0.0015432
        k(  432) = (   0.1486691   0.7625288  -0.1616846), wk =   0.0015432
        k(  433) = (  -1.1461911  -0.5323314  -0.1616846), wk =   0.0015432
        k(  434) = (  -1.0598671  -0.4460074  -0.1616846), wk =   0.0015432
        k(  435) = (  -0.9735431  -0.3596834  -0.1616846), wk =   0.0015432
        k(  436) = (  -0.8872191  -0.2733594  -0.1616846), wk =   0.0015432
        k(  437) = (  -0.8008951  -0.1870354  -0.1616846), wk =   0.0015432
        k(  438) = (  -0.7145710  -0.1007114  -0.1616846), wk =   0.0015432
        k(  439) = (  -0.6282470  -0.0143873  -0.1616846), wk =   0.0015432
        k(  440) = (  -0.5419230   0.0719367  -0.1616846), wk =   0.0015432
        k(  441) = (  -0.3788665   0.1582607  -0.1293477), wk =   0.0015432
        k(  442) = (  -0.2925425   0.2445847  -0.1293477), wk =   0.0015432
        k(  443) = (  -0.2062185   0.3309087  -0.1293477), wk =   0.0015432
        k(  444) = (  -0.1198945   0.4172328  -0.1293477), wk =   0.0015432
        k(  445) = (  -0.0335705   0.5035568  -0.1293477), wk =   0.0015432
        k(  446) = (   0.0527536   0.5898808  -0.1293477), wk =   0.0015432
        k(  447) = (   0.1390776   0.6762048  -0.1293477), wk =   0.0015432
        k(  448) = (   0.2254016   0.7625288  -0.1293477), wk =   0.0015432
        k(  449) = (  -1.0694587  -0.5323314  -0.1293477), wk =   0.0015432
        k(  450) = (  -0.9831347  -0.4460074  -0.1293477), wk =   0.0015432
        k(  451) = (  -0.8968106  -0.3596834  -0.1293477), wk =   0.0015432
        k(  452) = (  -0.8104866  -0.2733594  -0.1293477), wk =   0.0015432
        k(  453) = (  -0.7241626  -0.1870354  -0.1293477), wk =   0.0015432
        k(  454) = (  -0.6378386  -0.1007114  -0.1293477), wk =   0.0015432
        k(  455) = (  -0.5515146  -0.0143873  -0.1293477), wk =   0.0015432
        k(  456) = (  -0.4651905   0.0719367  -0.1293477), wk =   0.0015432
        k(  457) = (  -0.3021341   0.1582607  -0.0970108), wk =   0.0015432
        k(  458) = (  -0.2158100   0.2445847  -0.0970108), wk =   0.0015432
        k(  459) = (  -0.1294860   0.3309087  -0.0970108), wk =   0.0015432
        k(  460) = (  -0.0431620   0.4172328  -0.0970108), wk =   0.0015432
        k(  461) = (   0.0431620   0.5035568  -0.0970108), wk =   0.0015432
        k(  462) = (   0.1294860   0.5898808  -0.0970108), wk =   0.0015432
        k(  463) = (   0.2158100   0.6762048  -0.0970108), wk =   0.0015432
        k(  464) = (   0.3021341   0.7625288  -0.0970108), wk =   0.0015432
        k(  465) = (  -0.9927262  -0.5323314  -0.0970108), wk =   0.0015432
        k(  466) = (  -0.9064022  -0.4460074  -0.0970108), wk =   0.0015432
        k(  467) = (  -0.8200782  -0.3596834  -0.0970108), wk =   0.0015432
        k(  468) = (  -0.7337542  -0.2733594  -0.0970108), wk =   0.0015432
        k(  469) = (  -0.6474301  -0.1870354  -0.0970108), wk =   0.0015432
        k(  470) = (  -0.5611061  -0.1007114  -0.0970108), wk =   0.0015432
        k(  471) = (  -0.4747821  -0.0143873  -0.0970108), wk =   0.0015432
        k(  472) = (  -0.3884581   0.0719367  -0.0970108), wk =   0.0015432
        k(  473) = (  -0.2254016   0.1582607  -0.0646738), wk =   0.0015432
        k(  474) = (  -0.1390776   0.2445847  -0.0646738), wk =   0.0015432
        k(  475) = (  -0.0527536   0.3309087  -0.0646738), wk =   0.0015432
        k(  476) = (   0.0335705   0.4172328  -0.0646738), wk =   0.0015432
        k(  477) = (   0.1198945   0.5035568  -0.0646738), wk =   0.0015432
        k(  478) = (   0.2062185   0.5898808  -0.0646738), wk =   0.0015432
        k(  479) = (   0.2925425   0.6762048  -0.0646738), wk =   0.0015432
        k(  480) = (   0.3788665   0.7625288  -0.0646738), wk =   0.0015432
        k(  481) = (  -0.9159938  -0.5323314  -0.0646738), wk =   0.0015432
        k(  482) = (  -0.8296697  -0.4460074  -0.0646738), wk =   0.0015432
        k(  483) = (  -0.7433457  -0.3596834  -0.0646738), wk =   0.0015432
        k(  484) = (  -0.6570217  -0.2733594  -0.0646738), wk =   0.0015432
        k(  485) = (  -0.5706977  -0.1870354  -0.0646738), wk =   0.0015432
        k(  486) = (  -0.4843737  -0.1007114  -0.0646738), wk =   0.0015432
        k(  487) = (  -0.3980496  -0.0143873  -0.0646738), wk =   0.0015432
        k(  488) = (  -0.3117256   0.0719367  -0.0646738), wk =   0.0015432
        k(  489) = (  -0.1486691   0.1582607  -0.0323369), wk =   0.0015432
        k(  490) = (  -0.0623451   0.2445847  -0.0323369), wk =   0.0015432
        k(  491) = (   0.0239789   0.3309087  -0.0323369), wk =   0.0015432
        k(  492) = (   0.1103029   0.4172328  -0.0323369), wk =   0.0015432
        k(  493) = (   0.1966269   0.5035568  -0.0323369), wk =   0.0015432
        k(  494) = (   0.2829509   0.5898808  -0.0323369), wk =   0.0015432
        k(  495) = (   0.3692750   0.6762048  -0.0323369), wk =   0.0015432
        k(  496) = (   0.4555990   0.7625288  -0.0323369), wk =   0.0015432
        k(  497) = (  -0.8392613  -0.5323314  -0.0323369), wk =   0.0015432
        k(  498) = (  -0.7529373  -0.4460074  -0.0323369), wk =   0.0015432
        k(  499) = (  -0.6666133  -0.3596834  -0.0323369), wk =   0.0015432
        k(  500) = (  -0.5802892  -0.2733594  -0.0323369), wk =   0.0015432
        k(  501) = (  -0.4939652  -0.1870354  -0.0323369), wk =   0.0015432
        k(  502) = (  -0.4076412  -0.1007114  -0.0323369), wk =   0.0015432
        k(  503) = (  -0.3213172  -0.0143873  -0.0323369), wk =   0.0015432
        k(  504) = (  -0.2349932   0.0719367  -0.0323369), wk =   0.0015432
        k(  505) = (  -0.0719367   0.1582607  -0.0000000), wk =   0.0015432
        k(  506) = (   0.0143873   0.2445847  -0.0000000), wk =   0.0015432
        k(  507) = (   0.1007114   0.3309087  -0.0000000), wk =   0.0015432
        k(  508) = (   0.1870354   0.4172328  -0.0000000), wk =   0.0015432
        k(  509) = (   0.2733594   0.5035568  -0.0000000), wk =   0.0015432
        k(  510) = (   0.3596834   0.5898808  -0.0000000), wk =   0.0015432
        k(  511) = (   0.4460074   0.6762048  -0.0000000), wk =   0.0015432
        k(  512) = (   0.5323314   0.7625288  -0.0000000), wk =   0.0015432
        k(  513) = (   0.2349932   0.2349932   0.1616846), wk =   0.0007716
        k(  514) = (   0.3213172   0.3213172   0.1616846), wk =   0.0007716
        k(  515) = (   0.4076412   0.4076412   0.1616846), wk =   0.0007716
        k(  516) = (   0.4939652   0.4939652   0.1616846), wk =   0.0007716
        k(  517) = (   0.5802892   0.5802892   0.1616846), wk =   0.0007716
        k(  518) = (   0.6666133   0.6666133   0.1616846), wk =   0.0007716
        k(  519) = (   0.7529373   0.7529373   0.1616846), wk =   0.0007716
        k(  520) = (   0.8392613   0.8392613   0.1616846), wk =   0.0007716
        k(  521) = (  -0.4555990  -0.4555990   0.1616846), wk =   0.0007716
        k(  522) = (  -0.3692750  -0.3692750   0.1616846), wk =   0.0007716
        k(  523) = (  -0.2829509  -0.2829509   0.1616846), wk =   0.0007716
        k(  524) = (  -0.1966269  -0.1966269   0.1616846), wk =   0.0007716
        k(  525) = (  -0.1103029  -0.1103029   0.1616846), wk =   0.0007716
        k(  526) = (  -0.0239789  -0.0239789   0.1616846), wk =   0.0007716
        k(  527) = (   0.0623451   0.0623451   0.1616846), wk =   0.0007716
        k(  528) = (   0.1486691   0.1486691   0.1616846), wk =   0.0007716
        k(  529) = (   0.3117256   0.2349932   0.1940215), wk =   0.0015432
        k(  530) = (   0.3980496   0.3213172   0.1940215), wk =   0.0015432
        k(  531) = (   0.4843737   0.4076412   0.1940215), wk =   0.0015432
        k(  532) = (   0.5706977   0.4939652   0.1940215), wk =   0.0015432
        k(  533) = (   0.6570217   0.5802892   0.1940215), wk =   0.0015432
        k(  534) = (   0.7433457   0.6666133   0.1940215), wk =   0.0015432
        k(  535) = (   0.8296697   0.7529373   0.1940215), wk =   0.0015432
        k(  536) = (   0.9159938   0.8392613   0.1940215), wk =   0.0015432
        k(  537) = (  -0.3788665  -0.4555990   0.1940215), wk =   0.0015432
        k(  538) = (  -0.2925425  -0.3692750   0.1940215), wk =   0.0015432
        k(  539) = (  -0.2062185  -0.2829509   0.1940215), wk =   0.0015432
        k(  540) = (  -0.1198945  -0.1966269   0.1940215), wk =   0.0015432
        k(  541) = (  -0.0335705  -0.1103029   0.1940215), wk =   0.0015432
        k(  542) = (   0.0527536  -0.0239789   0.1940215), wk =   0.0015432
        k(  543) = (   0.1390776   0.0623451   0.1940215), wk =   0.0015432
        k(  544) = (   0.2254016   0.1486691   0.1940215), wk =   0.0015432
        k(  545) = (   0.3884581   0.2349932   0.2263585), wk =   0.0015432
        k(  546) = (   0.4747821   0.3213172   0.2263585), wk =   0.0015432
        k(  547) = (   0.5611061   0.4076412   0.2263585), wk =   0.0015432
        k(  548) = (   0.6474301   0.4939652   0.2263585), wk =   0.0015432
        k(  549) = (   0.7337542   0.5802892   0.2263585), wk =   0.0015432
        k(  550) = (   0.8200782   0.6666133   0.2263585), wk =   0.0015432
        k(  551) = (   0.9064022   0.7529373   0.2263585), wk =   0.0015432
        k(  552) = (   0.9927262   0.8392613   0.2263585), wk =   0.0015432
        k(  553) = (  -0.3021341  -0.4555990   0.2263585), wk =   0.0015432
        k(  554) = (  -0.2158100  -0.3692750   0.2263585), wk =   0.0015432
        k(  555) = (  -0.1294860  -0.2829509   0.2263585), wk =   0.0015432
        k(  556) = (  -0.0431620  -0.1966269   0.2263585), wk =   0.0015432
        k(  557) = (   0.0431620  -0.1103029   0.2263585), wk =   0.0015432
        k(  558) = (   0.1294860  -0.0239789   0.2263585), wk =   0.0015432
        k(  559) = (   0.2158100   0.0623451   0.2263585), wk =   0.0015432
        k(  560) = (   0.3021341   0.1486691   0.2263585), wk =   0.0015432
        k(  561) = (   0.4651905   0.2349932   0.2586954), wk =   0.0015432
        k(  562) = (   0.5515146   0.3213172   0.2586954), wk =   0.0015432
        k(  563) = (   0.6378386   0.4076412   0.2586954), wk =   0.0015432
        k(  564) = (   0.7241626   0.4939652   0.2586954), wk =   0.0015432
        k(  565) = (   0.8104866   0.5802892   0.2586954), wk =   0.0015432
        k(  566) = (   0.8968106   0.6666133   0.2586954), wk =   0.0015432
        k(  567) = (   0.9831347   0.7529373   0.2586954), wk =   0.0015432
        k(  568) = (   1.0694587   0.8392613   0.2586954), wk =   0.0015432
        k(  569) = (  -0.2254016  -0.4555990   0.2586954), wk =   0.0015432
        k(  570) = (  -0.1390776  -0.3692750   0.2586954), wk =   0.0015432
        k(  571) = (  -0.0527536  -0.2829509   0.2586954), wk =   0.0015432
        k(  572) = (   0.0335705  -0.1966269   0.2586954), wk =   0.0015432
        k(  573) = (   0.1198945  -0.1103029   0.2586954), wk =   0.0015432
        k(  574) = (   0.2062185  -0.0239789   0.2586954), wk =   0.0015432
        k(  575) = (   0.2925425   0.0623451   0.2586954), wk =   0.0015432
        k(  576) = (   0.3788665   0.1486691   0.2586954), wk =   0.0015432
        k(  577) = (   0.5419230   0.2349932   0.2910323), wk =   0.0030864
        k(  578) = (   0.6282470   0.3213172   0.2910323), wk =   0.0030864
        k(  579) = (   0.7145710   0.4076412   0.2910323), wk =   0.0030864
        k(  580) = (   0.8008951   0.4939652   0.2910323), wk =   0.0030864
        k(  581) = (  -0.1486691  -0.4555990   0.2910323), wk =   0.0030864
        k(  582) = (  -0.0623451  -0.3692750   0.2910323), wk =   0.0030864
        k(  583) = (   0.0239789  -0.2829509   0.2910323), wk =   0.0030864
        k(  584) = (   0.1103029  -0.1966269   0.2910323), wk =   0.0030864
        k(  585) = (   0.6186555   0.2349932   0.3233692), wk =   0.0015432
        k(  586) = (   0.7049795   0.3213172   0.3233692), wk =   0.0015432
        k(  587) = (   0.7913035   0.4076412   0.3233692), wk =   0.0015432
        k(  588) = (   0.8776275   0.4939652   0.3233692), wk =   0.0015432
        k(  589) = (   0.9639515   0.5802892   0.3233692), wk =   0.0015432
        k(  590) = (   1.0502756   0.6666133   0.3233692), wk =   0.0015432
        k(  591) = (   1.1365996   0.7529373   0.3233692), wk =   0.0015432
        k(  592) = (   1.2229236   0.8392613   0.3233692), wk =   0.0015432
        k(  593) = (  -0.0719367  -0.4555990   0.3233692), wk =   0.0015432
        k(  594) = (   0.0143873  -0.3692750   0.3233692), wk =   0.0015432
        k(  595) = (   0.1007114  -0.2829509   0.3233692), wk =   0.0015432
        k(  596) = (   0.1870354  -0.1966269   0.3233692), wk =   0.0015432
        k(  597) = (   0.2733594  -0.1103029   0.3233692), wk =   0.0015432
        k(  598) = (   0.3596834  -0.0239789   0.3233692), wk =   0.0015432
        k(  599) = (   0.4460074   0.0623451   0.3233692), wk =   0.0015432
        k(  600) = (   0.5323314   0.1486691   0.3233692), wk =   0.0015432
        k(  601) = (   0.6953879   0.2349932   0.3557062), wk =   0.0015432
        k(  602) = (   0.7817119   0.3213172   0.3557062), wk =   0.0015432
        k(  603) = (   0.8680360   0.4076412   0.3557062), wk =   0.0015432
        k(  604) = (   0.9543600   0.4939652   0.3557062), wk =   0.0015432
        k(  605) = (   1.0406840   0.5802892   0.3557062), wk =   0.0015432
        k(  606) = (   1.1270080   0.6666133   0.3557062), wk =   0.0015432
        k(  607) = (   1.2133320   0.7529373   0.3557062), wk =   0.0015432
        k(  608) = (   1.2996561   0.8392613   0.3557062), wk =   0.0015432
        k(  609) = (   0.0047958  -0.4555990   0.3557062), wk =   0.0015432
        k(  610) = (   0.0911198  -0.3692750   0.3557062), wk =   0.0015432
        k(  611) = (   0.1774438  -0.2829509   0.3557062), wk =   0.0015432
        k(  612) = (   0.2637678  -0.1966269   0.3557062), wk =   0.0015432
        k(  613) = (   0.3500919  -0.1103029   0.3557062), wk =   0.0015432
        k(  614) = (   0.4364159  -0.0239789   0.3557062), wk =   0.0015432
        k(  615) = (   0.5227399   0.0623451   0.3557062), wk =   0.0015432
        k(  616) = (   0.6090639   0.1486691   0.3557062), wk =   0.0015432
        k(  617) = (  -0.6090639   0.2349932  -0.1940215), wk =   0.0015432
        k(  618) = (  -0.5227399   0.3213172  -0.1940215), wk =   0.0015432
        k(  619) = (  -0.4364159   0.4076412  -0.1940215), wk =   0.0015432
        k(  620) = (  -0.3500919   0.4939652  -0.1940215), wk =   0.0015432
        k(  621) = (  -0.2637678   0.5802892  -0.1940215), wk =   0.0015432
        k(  622) = (  -0.1774438   0.6666133  -0.1940215), wk =   0.0015432
        k(  623) = (  -0.0911198   0.7529373  -0.1940215), wk =   0.0015432
        k(  624) = (  -0.0047958   0.8392613  -0.1940215), wk =   0.0015432
        k(  625) = (  -1.2996561  -0.4555990  -0.1940215), wk =   0.0015432
        k(  626) = (  -1.2133320  -0.3692750  -0.1940215), wk =   0.0015432
        k(  627) = (  -1.1270080  -0.2829509  -0.1940215), wk =   0.0015432
        k(  628) = (  -1.0406840  -0.1966269  -0.1940215), wk =   0.0015432
        k(  629) = (  -0.9543600  -0.1103029  -0.1940215), wk =   0.0015432
        k(  630) = (  -0.8680360  -0.0239789  -0.1940215), wk =   0.0015432
        k(  631) = (  -0.7817119   0.0623451  -0.1940215), wk =   0.0015432
        k(  632) = (  -0.6953879   0.1486691  -0.1940215), wk =   0.0015432
        k(  633) = (  -0.5323314   0.2349932  -0.1616846), wk =   0.0015432
        k(  634) = (  -0.4460074   0.3213172  -0.1616846), wk =   0.0015432
        k(  635) = (  -0.3596834   0.4076412  -0.1616846), wk =   0.0015432
        k(  636) = (  -0.2733594   0.4939652  -0.1616846), wk =   0.0015432
        k(  637) = (  -0.1870354   0.5802892  -0.1616846), wk =   0.0015432
        k(  638) = (  -0.1007114   0.6666133  -0.1616846), wk =   0.0015432
        k(  639) = (  -0.0143873   0.7529373  -0.1616846), wk =   0.0015432
        k(  640) = (   0.0719367   0.8392613  -0.1616846), wk =   0.0015432
        k(  641) = (  -1.2229236  -0.4555990  -0.1616846), wk =   0.0015432
        k(  642) = (  -1.1365996  -0.3692750  -0.1616846), wk =   0.0015432
        k(  643) = (  -1.0502756  -0.2829509  -0.1616846), wk =   0.0015432
        k(  644) = (  -0.9639515  -0.1966269  -0.1616846), wk =   0.0015432
        k(  645) = (  -0.8776275  -0.1103029  -0.1616846), wk =   0.0015432
        k(  646) = (  -0.7913035  -0.0239789  -0.1616846), wk =   0.0015432
        k(  647) = (  -0.7049795   0.0623451  -0.1616846), wk =   0.0015432
        k(  648) = (  -0.6186555   0.1486691  -0.1616846), wk =   0.0015432
        k(  649) = (  -0.4555990   0.2349932  -0.1293477), wk =   0.0015432
        k(  650) = (  -0.3692750   0.3213172  -0.1293477), wk =   0.0015432
        k(  651) = (  -0.2829509   0.4076412  -0.1293477), wk =   0.0015432
        k(  652) = (  -0.1966269   0.4939652  -0.1293477), wk =   0.0015432
        k(  653) = (  -0.1103029   0.5802892  -0.1293477), wk =   0.0015432
        k(  654) = (  -0.0239789   0.6666133  -0.1293477), wk =   0.0015432
        k(  655) = (   0.0623451   0.7529373  -0.1293477), wk =   0.0015432
        k(  656) = (   0.1486691   0.8392613  -0.1293477), wk =   0.0015432
        k(  657) = (  -1.1461911  -0.4555990  -0.1293477), wk =   0.0015432
        k(  658) = (  -1.0598671  -0.3692750  -0.1293477), wk =   0.0015432
        k(  659) = (  -0.9735431  -0.2829509  -0.1293477), wk =   0.0015432
        k(  660) = (  -0.8872191  -0.1966269  -0.1293477), wk =   0.0015432
        k(  661) = (  -0.8008951  -0.1103029  -0.1293477), wk =   0.0015432
        k(  662) = (  -0.7145710  -0.0239789  -0.1293477), wk =   0.0015432
        k(  663) = (  -0.6282470   0.0623451  -0.1293477), wk =   0.0015432
        k(  664) = (  -0.5419230   0.1486691  -0.1293477), wk =   0.0015432
        k(  665) = (  -0.3788665   0.2349932  -0.0970108), wk =   0.0015432
        k(  666) = (  -0.2925425   0.3213172  -0.0970108), wk =   0.0015432
        k(  667) = (  -0.2062185   0.4076412  -0.0970108), wk =   0.0015432
        k(  668) = (  -0.1198945   0.4939652  -0.0970108), wk =   0.0015432
        k(  669) = (  -0.0335705   0.5802892  -0.0970108), wk =   0.0015432
        k(  670) = (   0.0527536   0.6666133  -0.0970108), wk =   0.0015432
        k(  671) = (   0.1390776   0.7529373  -0.0970108), wk =   0.0015432
        k(  672) = (   0.2254016   0.8392613  -0.0970108), wk =   0.0015432
        k(  673) = (  -1.0694587  -0.4555990  -0.0970108), wk =   0.0015432
        k(  674) = (  -0.9831347  -0.3692750  -0.0970108), wk =   0.0015432
        k(  675) = (  -0.8968106  -0.2829509  -0.0970108), wk =   0.0015432
        k(  676) = (  -0.8104866  -0.1966269  -0.0970108), wk =   0.0015432
        k(  677) = (  -0.7241626  -0.1103029  -0.0970108), wk =   0.0015432
        k(  678) = (  -0.6378386  -0.0239789  -0.0970108), wk =   0.0015432
        k(  679) = (  -0.5515146   0.0623451  -0.0970108), wk =   0.0015432
        k(  680) = (  -0.4651905   0.1486691  -0.0970108), wk =   0.0015432
        k(  681) = (  -0.3021341   0.2349932  -0.0646738), wk =   0.0015432
        k(  682) = (  -0.2158100   0.3213172  -0.0646738), wk =   0.0015432
        k(  683) = (  -0.1294860   0.4076412  -0.0646738), wk =   0.0015432
        k(  684) = (  -0.0431620   0.4939652  -0.0646738), wk =   0.0015432
        k(  685) = (   0.0431620   0.5802892  -0.0646738), wk =   0.0015432
        k(  686) = (   0.1294860   0.6666133  -0.0646738), wk =   0.0015432
        k(  687) = (   0.2158100   0.7529373  -0.0646738), wk =   0.0015432
        k(  688) = (   0.3021341   0.8392613  -0.0646738), wk =   0.0015432
        k(  689) = (  -0.9927262  -0.4555990  -0.0646738), wk =   0.0015432
        k(  690) = (  -0.9064022  -0.3692750  -0.0646738), wk =   0.0015432
        k(  691) = (  -0.8200782  -0.2829509  -0.0646738), wk =   0.0015432
        k(  692) = (  -0.7337542  -0.1966269  -0.0646738), wk =   0.0015432
        k(  693) = (  -0.6474301  -0.1103029  -0.0646738), wk =   0.0015432
        k(  694) = (  -0.5611061  -0.0239789  -0.0646738), wk =   0.0015432
        k(  695) = (  -0.4747821   0.0623451  -0.0646738), wk =   0.0015432
        k(  696) = (  -0.3884581   0.1486691  -0.0646738), wk =   0.0015432
        k(  697) = (  -0.2254016   0.2349932  -0.0323369), wk =   0.0015432
        k(  698) = (  -0.1390776   0.3213172  -0.0323369), wk =   0.0015432
        k(  699) = (  -0.0527536   0.4076412  -0.0323369), wk =   0.0015432
        k(  700) = (   0.0335705   0.4939652  -0.0323369), wk =   0.0015432
        k(  701) = (   0.1198945   0.5802892  -0.0323369), wk =   0.0015432
        k(  702) = (   0.2062185   0.6666133  -0.0323369), wk =   0.0015432
        k(  703) = (   0.2925425   0.7529373  -0.0323369), wk =   0.0015432
        k(  704) = (   0.3788665   0.8392613  -0.0323369), wk =   0.0015432
        k(  705) = (  -0.9159938  -0.4555990  -0.0323369), wk =   0.0015432
        k(  706) = (  -0.8296697  -0.3692750  -0.0323369), wk =   0.0015432
        k(  707) = (  -0.7433457  -0.2829509  -0.0323369), wk =   0.0015432
        k(  708) = (  -0.6570217  -0.1966269  -0.0323369), wk =   0.0015432
        k(  709) = (  -0.5706977  -0.1103029  -0.0323369), wk =   0.0015432
        k(  710) = (  -0.4843737  -0.0239789  -0.0323369), wk =   0.0015432
        k(  711) = (  -0.3980496   0.0623451  -0.0323369), wk =   0.0015432
        k(  712) = (  -0.3117256   0.1486691  -0.0323369), wk =   0.0015432
        k(  713) = (  -0.1486691   0.2349932   0.0000000), wk =   0.0015432
        k(  714) = (  -0.0623451   0.3213172   0.0000000), wk =   0.0015432
        k(  715) = (   0.0239789   0.4076412   0.0000000), wk =   0.0015432
        k(  716) = (   0.1103029   0.4939652   0.0000000), wk =   0.0015432
        k(  717) = (   0.1966269   0.5802892   0.0000000), wk =   0.0015432
        k(  718) = (   0.2829509   0.6666133   0.0000000), wk =   0.0015432
        k(  719) = (   0.3692750   0.7529373   0.0000000), wk =   0.0015432
        k(  720) = (   0.4555990   0.8392613   0.0000000), wk =   0.0015432
        k(  721) = (   0.3117256   0.3117256   0.2263585), wk =   0.0007716
        k(  722) = (   0.3980496   0.3980496   0.2263585), wk =   0.0007716
        k(  723) = (   0.4843737   0.4843737   0.2263585), wk =   0.0007716
        k(  724) = (   0.5706977   0.5706977   0.2263585), wk =   0.0007716
        k(  725) = (   0.6570217   0.6570217   0.2263585), wk =   0.0007716
        k(  726) = (   0.7433457   0.7433457   0.2263585), wk =   0.0007716
        k(  727) = (   0.8296697   0.8296697   0.2263585), wk =   0.0007716
        k(  728) = (   0.9159938   0.9159938   0.2263585), wk =   0.0007716
        k(  729) = (  -0.3788665  -0.3788665   0.2263585), wk =   0.0007716
        k(  730) = (  -0.2925425  -0.2925425   0.2263585), wk =   0.0007716
        k(  731) = (  -0.2062185  -0.2062185   0.2263585), wk =   0.0007716
        k(  732) = (  -0.1198945  -0.1198945   0.2263585), wk =   0.0007716
        k(  733) = (  -0.0335705  -0.0335705   0.2263585), wk =   0.0007716
        k(  734) = (   0.0527536   0.0527536   0.2263585), wk =   0.0007716
        k(  735) = (   0.1390776   0.1390776   0.2263585), wk =   0.0007716
        k(  736) = (   0.2254016   0.2254016   0.2263585), wk =   0.0007716
        k(  737) = (   0.3884581   0.3117256   0.2586954), wk =   0.0015432
        k(  738) = (   0.4747821   0.3980496   0.2586954), wk =   0.0015432
        k(  739) = (   0.5611061   0.4843737   0.2586954), wk =   0.0015432
        k(  740) = (   0.6474301   0.5706977   0.2586954), wk =   0.0015432
        k(  741) = (   0.7337542   0.6570217   0.2586954), wk =   0.0015432
        k(  742) = (   0.8200782   0.7433457   0.2586954), wk =   0.0015432
        k(  743) = (   0.9064022   0.8296697   0.2586954), wk =   0.0015432
        k(  744) = (   0.9927262   0.9159938   0.2586954), wk =   0.0015432
        k(  745) = (  -0.3021341  -0.3788665   0.2586954), wk =   0.0015432
        k(  746) = (  -0.2158100  -0.2925425   0.2586954), wk =   0.0015432
        k(  747) = (  -0.1294860  -0.2062185   0.2586954), wk =   0.0015432
        k(  748) = (  -0.0431620  -0.1198945   0.2586954), wk =   0.0015432
        k(  749) = (   0.0431620  -0.0335705   0.2586954), wk =   0.0015432
        k(  750) = (   0.1294860   0.0527536   0.2586954), wk =   0.0015432
        k(  751) = (   0.2158100   0.1390776   0.2586954), wk =   0.0015432
        k(  752) = (   0.3021341   0.2254016   0.2586954), wk =   0.0015432
        k(  753) = (   0.4651905   0.3117256   0.2910323), wk =   0.0030864
        k(  754) = (   0.5515146   0.3980496   0.2910323), wk =   0.0030864
        k(  755) = (   0.6378386   0.4843737   0.2910323), wk =   0.0030864
        k(  756) = (   0.7241626   0.5706977   0.2910323), wk =   0.0030864
        k(  757) = (  -0.2254016  -0.3788665   0.2910323), wk =   0.0030864
        k(  758) = (  -0.1390776  -0.2925425   0.2910323), wk =   0.0030864
        k(  759) = (  -0.0527536  -0.2062185   0.2910323), wk =   0.0030864
        k(  760) = (   0.0335705  -0.1198945   0.2910323), wk =   0.0030864
        k(  761) = (   0.5419230   0.3117256   0.3233692), wk =   0.0015432
        k(  762) = (   0.6282470   0.3980496   0.3233692), wk =   0.0015432
        k(  763) = (   0.7145710   0.4843737   0.3233692), wk =   0.0015432
        k(  764) = (   0.8008951   0.5706977   0.3233692), wk =   0.0015432
        k(  765) = (   0.8872191   0.6570217   0.3233692), wk =   0.0015432
        k(  766) = (   0.9735431   0.7433457   0.3233692), wk =   0.0015432
        k(  767) = (   1.0598671   0.8296697   0.3233692), wk =   0.0015432
        k(  768) = (   1.1461911   0.9159938   0.3233692), wk =   0.0015432
        k(  769) = (  -0.1486691  -0.3788665   0.3233692), wk =   0.0015432
        k(  770) = (  -0.0623451  -0.2925425   0.3233692), wk =   0.0015432
        k(  771) = (   0.0239789  -0.2062185   0.3233692), wk =   0.0015432
        k(  772) = (   0.1103029  -0.1198945   0.3233692), wk =   0.0015432
        k(  773) = (   0.1966269  -0.0335705   0.3233692), wk =   0.0015432
        k(  774) = (   0.2829509   0.0527536   0.3233692), wk =   0.0015432
        k(  775) = (   0.3692750   0.1390776   0.3233692), wk =   0.0015432
        k(  776) = (   0.4555990   0.2254016   0.3233692), wk =   0.0015432
        k(  777) = (   0.6186555   0.3117256   0.3557062), wk =   0.0015432
        k(  778) = (   0.7049795   0.3980496   0.3557062), wk =   0.0015432
        k(  779) = (   0.7913035   0.4843737   0.3557062), wk =   0.0015432
        k(  780) = (   0.8776275   0.5706977   0.3557062), wk =   0.0015432
        k(  781) = (   0.9639515   0.6570217   0.3557062), wk =   0.0015432
        k(  782) = (   1.0502756   0.7433457   0.3557062), wk =   0.0015432
        k(  783) = (   1.1365996   0.8296697   0.3557062), wk =   0.0015432
        k(  784) = (   1.2229236   0.9159938   0.3557062), wk =   0.0015432
        k(  785) = (  -0.0719367  -0.3788665   0.3557062), wk =   0.0015432
        k(  786) = (   0.0143873  -0.2925425   0.3557062), wk =   0.0015432
        k(  787) = (   0.1007114  -0.2062185   0.3557062), wk =   0.0015432
        k(  788) = (   0.1870354  -0.1198945   0.3557062), wk =   0.0015432
        k(  789) = (   0.2733594  -0.0335705   0.3557062), wk =   0.0015432
        k(  790) = (   0.3596834   0.0527536   0.3557062), wk =   0.0015432
        k(  791) = (   0.4460074   0.1390776   0.3557062), wk =   0.0015432
        k(  792) = (   0.5323314   0.2254016   0.3557062), wk =   0.0015432
        k(  793) = (   0.6953879   0.3117256   0.3880431), wk =   0.0015432
        k(  794) = (   0.7817119   0.3980496   0.3880431), wk =   0.0015432
        k(  795) = (   0.8680360   0.4843737   0.3880431), wk =   0.0015432
        k(  796) = (   0.9543600   0.5706977   0.3880431), wk =   0.0015432
        k(  797) = (   1.0406840   0.6570217   0.3880431), wk =   0.0015432
        k(  798) = (   1.1270080   0.7433457   0.3880431), wk =   0.0015432
        k(  799) = (   1.2133320   0.8296697   0.3880431), wk =   0.0015432
        k(  800) = (   1.2996561   0.9159938   0.3880431), wk =   0.0015432
        k(  801) = (   0.0047958  -0.3788665   0.3880431), wk =   0.0015432
        k(  802) = (   0.0911198  -0.2925425   0.3880431), wk =   0.0015432
        k(  803) = (   0.1774438  -0.2062185   0.3880431), wk =   0.0015432
        k(  804) = (   0.2637678  -0.1198945   0.3880431), wk =   0.0015432
        k(  805) = (   0.3500919  -0.0335705   0.3880431), wk =   0.0015432
        k(  806) = (   0.4364159   0.0527536   0.3880431), wk =   0.0015432
        k(  807) = (   0.5227399   0.1390776   0.3880431), wk =   0.0015432
        k(  808) = (   0.6090639   0.2254016   0.3880431), wk =   0.0015432
        k(  809) = (  -0.6090639   0.3117256  -0.1616846), wk =   0.0015432
        k(  810) = (  -0.5227399   0.3980496  -0.1616846), wk =   0.0015432
        k(  811) = (  -0.4364159   0.4843737  -0.1616846), wk =   0.0015432
        k(  812) = (  -0.3500919   0.5706977  -0.1616846), wk =   0.0015432
        k(  813) = (  -0.2637678   0.6570217  -0.1616846), wk =   0.0015432
        k(  814) = (  -0.1774438   0.7433457  -0.1616846), wk =   0.0015432
        k(  815) = (  -0.0911198   0.8296697  -0.1616846), wk =   0.0015432
        k(  816) = (  -0.0047958   0.9159938  -0.1616846), wk =   0.0015432
        k(  817) = (  -1.2996561  -0.3788665  -0.1616846), wk =   0.0015432
        k(  818) = (  -1.2133320  -0.2925425  -0.1616846), wk =   0.0015432
        k(  819) = (  -1.1270080  -0.2062185  -0.1616846), wk =   0.0015432
        k(  820) = (  -1.0406840  -0.1198945  -0.1616846), wk =   0.0015432
        k(  821) = (  -0.9543600  -0.0335705  -0.1616846), wk =   0.0015432
        k(  822) = (  -0.8680360   0.0527536  -0.1616846), wk =   0.0015432
        k(  823) = (  -0.7817119   0.1390776  -0.1616846), wk =   0.0015432
        k(  824) = (  -0.6953879   0.2254016  -0.1616846), wk =   0.0015432
        k(  825) = (  -0.5323314   0.3117256  -0.1293477), wk =   0.0015432
        k(  826) = (  -0.4460074   0.3980496  -0.1293477), wk =   0.0015432
        k(  827) = (  -0.3596834   0.4843737  -0.1293477), wk =   0.0015432
        k(  828) = (  -0.2733594   0.5706977  -0.1293477), wk =   0.0015432
        k(  829) = (  -0.1870354   0.6570217  -0.1293477), wk =   0.0015432
        k(  830) = (  -0.1007114   0.7433457  -0.1293477), wk =   0.0015432
        k(  831) = (  -0.0143873   0.8296697  -0.1293477), wk =   0.0015432
        k(  832) = (   0.0719367   0.9159938  -0.1293477), wk =   0.0015432
        k(  833) = (  -1.2229236  -0.3788665  -0.1293477), wk =   0.0015432
        k(  834) = (  -1.1365996  -0.2925425  -0.1293477), wk =   0.0015432
        k(  835) = (  -1.0502756  -0.2062185  -0.1293477), wk =   0.0015432
        k(  836) = (  -0.9639515  -0.1198945  -0.1293477), wk =   0.0015432
        k(  837) = (  -0.8776275  -0.0335705  -0.1293477), wk =   0.0015432
        k(  838) = (  -0.7913035   0.0527536  -0.1293477), wk =   0.0015432
        k(  839) = (  -0.7049795   0.1390776  -0.1293477), wk =   0.0015432
        k(  840) = (  -0.6186555   0.2254016  -0.1293477), wk =   0.0015432
        k(  841) = (  -0.4555990   0.3117256  -0.0970108), wk =   0.0015432
        k(  842) = (  -0.3692750   0.3980496  -0.0970108), wk =   0.0015432
        k(  843) = (  -0.2829509   0.4843737  -0.0970108), wk =   0.0015432
        k(  844) = (  -0.1966269   0.5706977  -0.0970108), wk =   0.0015432
        k(  845) = (  -0.1103029   0.6570217  -0.0970108), wk =   0.0015432
        k(  846) = (  -0.0239789   0.7433457  -0.0970108), wk =   0.0015432
        k(  847) = (   0.0623451   0.8296697  -0.0970108), wk =   0.0015432
        k(  848) = (   0.1486691   0.9159938  -0.0970108), wk =   0.0015432
        k(  849) = (  -1.1461911  -0.3788665  -0.0970108), wk =   0.0015432
        k(  850) = (  -1.0598671  -0.2925425  -0.0970108), wk =   0.0015432
        k(  851) = (  -0.9735431  -0.2062185  -0.0970108), wk =   0.0015432
        k(  852) = (  -0.8872191  -0.1198945  -0.0970108), wk =   0.0015432
        k(  853) = (  -0.8008951  -0.0335705  -0.0970108), wk =   0.0015432
        k(  854) = (  -0.7145710   0.0527536  -0.0970108), wk =   0.0015432
        k(  855) = (  -0.6282470   0.1390776  -0.0970108), wk =   0.0015432
        k(  856) = (  -0.5419230   0.2254016  -0.0970108), wk =   0.0015432
        k(  857) = (  -0.3788665   0.3117256  -0.0646738), wk =   0.0015432
        k(  858) = (  -0.2925425   0.3980496  -0.0646738), wk =   0.0015432
        k(  859) = (  -0.2062185   0.4843737  -0.0646738), wk =   0.0015432
        k(  860) = (  -0.1198945   0.5706977  -0.0646738), wk =   0.0015432
        k(  861) = (  -0.0335705   0.6570217  -0.0646738), wk =   0.0015432
        k(  862) = (   0.0527536   0.7433457  -0.0646738), wk =   0.0015432
        k(  863) = (   0.1390776   0.8296697  -0.0646738), wk =   0.0015432
        k(  864) = (   0.2254016   0.9159938  -0.0646738), wk =   0.0015432
        k(  865) = (  -1.0694587  -0.3788665  -0.0646738), wk =   0.0015432
        k(  866) = (  -0.9831347  -0.2925425  -0.0646738), wk =   0.0015432
        k(  867) = (  -0.8968106  -0.2062185  -0.0646738), wk =   0.0015432
        k(  868) = (  -0.8104866  -0.1198945  -0.0646738), wk =   0.0015432
        k(  869) = (  -0.7241626  -0.0335705  -0.0646738), wk =   0.0015432
        k(  870) = (  -0.6378386   0.0527536  -0.0646738), wk =   0.0015432
        k(  871) = (  -0.5515146   0.1390776  -0.0646738), wk =   0.0015432
        k(  872) = (  -0.4651905   0.2254016  -0.0646738), wk =   0.0015432
        k(  873) = (  -0.3021341   0.3117256  -0.0323369), wk =   0.0015432
        k(  874) = (  -0.2158100   0.3980496  -0.0323369), wk =   0.0015432
        k(  875) = (  -0.1294860   0.4843737  -0.0323369), wk =   0.0015432
        k(  876) = (  -0.0431620   0.5706977  -0.0323369), wk =   0.0015432
        k(  877) = (   0.0431620   0.6570217  -0.0323369), wk =   0.0015432
        k(  878) = (   0.1294860   0.7433457  -0.0323369), wk =   0.0015432
        k(  879) = (   0.2158100   0.8296697  -0.0323369), wk =   0.0015432
        k(  880) = (   0.3021341   0.9159938  -0.0323369), wk =   0.0015432
        k(  881) = (  -0.9927262  -0.3788665  -0.0323369), wk =   0.0015432
        k(  882) = (  -0.9064022  -0.2925425  -0.0323369), wk =   0.0015432
        k(  883) = (  -0.8200782  -0.2062185  -0.0323369), wk =   0.0015432
        k(  884) = (  -0.7337542  -0.1198945  -0.0323369), wk =   0.0015432
        k(  885) = (  -0.6474301  -0.0335705  -0.0323369), wk =   0.0015432
[...]

   -72.2312 -72.2284 -38.0182 -37.9971 -37.9946 -37.9899 -37.9629 -37.9418
   -28.8055  -9.8484  -9.8469  -9.8069  -0.0806   1.6769   7.0011   7.1269
     7.2381   7.9448   8.3907   8.8113   9.0168   9.0395   9.1087   9.6098
     9.8573  11.2262  11.3925  11.9629  12.4601  14.0456  15.5367  16.0750
    16.0938  16.7292

     occupation numbers 
     1.0000   1.0000   1.0000   1.0000   1.0000   1.0000   1.0000   1.0000
     1.0000   1.0000   1.0000   1.0000   1.0000   1.0000   1.0000   1.0000
     1.0000   1.0000   1.0000   1.0000   1.0000   1.0000   1.0000   1.0000
     1.0000   1.0000   1.0000   1.0001   0.3390   0.0000   0.0000   0.0000
     0.0000   0.0000

          k = 1.0407 1.0407 0.5497 (  6364 PWs)   bands (ev):

   -72.2321 -72.2275 -38.0166 -37.9960 -37.9886 -37.9828 -37.9770 -37.9430
   -28.8060  -9.8433  -9.8410  -9.8091  -0.1122   1.4710   6.9158   7.2540
     7.3636   8.0017   8.1668   8.6304   8.8573   9.3028   9.3166   9.7194
     9.8661  11.4003  11.7148  12.2916  13.0813  14.3539  15.1815  15.5655
    15.8248  16.3552

     occupation numbers 
     1.0000   1.0000   1.0000   1.0000   1.0000   1.0000   1.0000   1.0000
     1.0000   1.0000   1.0000   1.0000   1.0000   1.0000   1.0000   1.0000
     1.0000   1.0000   1.0000   1.0000   1.0000   1.0000   1.0000   1.0000
     1.0000   1.0000   1.0000   1.0614   0.0000   0.0000   0.0000   0.0000
     0.0000   0.0000

          k = 1.1270 1.1270 0.5497 (  6333 PWs)   bands (ev):

   -72.2330 -72.2267 -38.0150 -37.9974 -37.9907 -37.9872 -37.9685 -37.9441
   -28.8065  -9.8374  -9.8352  -9.8114  -0.1569   1.2808   6.6437   7.3783
     7.7466   7.9556   8.1249   8.4366   8.6784   9.4691   9.6851   9.8941
     9.9858  11.3882  12.0653  12.6467  13.7135  14.6443  14.9546  15.0677
    15.4874  16.0149

     occupation numbers 
     1.0000   1.0000   1.0000   1.0000   1.0000   1.0000   1.0000   1.0000
     1.0000   1.0000   1.0000   1.0000   1.0000   1.0000   1.0000   1.0000
     1.0000   1.0000   1.0000   1.0000   1.0000   1.0000   1.0000   1.0000
     1.0000   1.0000   1.0034   0.0046   0.0000   0.0000   0.0000   0.0000
     0.0000   0.0000

          k = 1.2133 1.2133 0.5497 (  6341 PWs)   bands (ev):

   -72.2337 -72.2260 -38.0136 -38.0024 -37.9986 -37.9861 -37.9565 -37.9451
   -28.8069  -9.8317  -9.8304  -9.8135  -0.2042   1.1302   6.4397   7.4978
     7.7693   8.1208   8.2643   8.2853   8.5231   9.4973  10.0726  10.1308
    10.2626  11.3362  12.1640  12.9183  14.2721  14.4171  14.8456  14.9627
    15.2904  15.9377

     occupation numbers 
     1.0000   1.0000   1.0000   1.0000   1.0000   1.0000   1.0000   1.0000
     1.0000   1.0000   1.0000   1.0000   1.0000   1.0000   1.0000   1.0000
     1.0000   1.0000   1.0000   1.0000   1.0000   1.0000   1.0000   1.0000
     1.0000   1.0000   1.0343   0.0000   0.0000   0.0000   0.0000   0.0000
     0.0000   0.0000

          k = 1.2997 1.2997 0.5497 (  6326 PWs)   bands (ev):

   -72.2342 -72.2255 -38.0127 -38.0100 -37.9993 -37.9854 -37.9485 -37.9458
   -28.8072  -9.8276  -9.8272  -9.8148  -0.2399   1.0352   6.3158   7.5940
     7.6648   8.1525   8.3811   8.3903   8.4353   9.4715  10.2037  10.5615
    10.5839  11.2241  12.0435  13.0754  13.9745  14.4337  14.7582  14.9386
    15.5569  15.9201

     occupation numbers 
     1.0000   1.0000   1.0000   1.0000   1.0000   1.0000   1.0000   1.0000
     1.0000   1.0000   1.0000   1.0000   1.0000   1.0000   1.0000   1.0000
     1.0000   1.0000   1.0000   1.0000   1.0000   1.0000   1.0000   1.0000
     1.0000   1.0000   1.0017   0.0000   0.0000   0.0000   0.0000   0.0000
     0.0000   0.0000

          k = 0.0048 0.0048 0.5497 (  6304 PWs)   bands (ev):

   -72.2343 -72.2254 -38.0123 -38.0123 -37.9995 -37.9851 -37.9460 -37.9460
   -28.8073  -9.8262  -9.8262  -9.8153  -0.2521   1.0051   6.2772   7.6312
     7.6315   8.1144   8.3603   8.4731   8.4732   9.4554  10.2484  10.7583
    10.7583  11.1268  11.9422  13.1235  13.8409  14.2454  14.9131  14.9138
    15.6149  16.0859

     occupation numbers 
     1.0000   1.0000   1.0000   1.0000   1.0000   1.0000   1.0000   1.0000
     1.0000   1.0000   1.0000   1.0000   1.0000   1.0000   1.0000   1.0000
     1.0000   1.0000   1.0000   1.0000   1.0000   1.0000   1.0000   1.0000
     1.0000   1.0000   1.0000   0.0000   0.0000   0.0000   0.0000   0.0000
     0.0000   0.0000

          k = 0.0911 0.0911 0.5497 (  6329 PWs)   bands (ev):

   -72.2341 -72.2255 -38.0128 -38.0094 -37.9992 -37.9854 -37.9492 -37.9457
   -28.8072  -9.8279  -9.8275  -9.8147  -0.2369   1.0426   6.3254   7.5855
     7.6730   8.1617   8.3591   8.3901   8.4337   9.4748  10.1928  10.5193
    10.5504  11.2393  12.0619  13.0634  14.0069  14.4779  14.7212  14.9420
    15.5323  15.9085

     occupation numbers 
     1.0000   1.0000   1.0000   1.0000   1.0000   1.0000   1.0000   1.0000
     1.0000   1.0000   1.0000   1.0000   1.0000   1.0000   1.0000   1.0000
     1.0000   1.0000   1.0000   1.0000   1.0000   1.0000   1.0000   1.0000
     1.0000   1.0000   1.0030   0.0000   0.0000   0.0000   0.0000   0.0000
     0.0000   0.0000

          k = 0.1774 0.1774 0.5497 (  6339 PWs)   bands (ev):

   -72.2336 -72.2260 -38.0137 -38.0012 -37.9984 -37.9862 -37.9577 -37.9450
   -28.8069  -9.8322  -9.8309  -9.8133  -0.1993   1.1444   6.4585   7.4852
     7.7845   8.0852   8.2629   8.2857   8.5386   9.4984  10.0542  10.0799
    10.2271  11.3447  12.1664  12.8939  14.2285  14.4569  14.8376  15.0057
    15.2708  15.9253

     occupation numbers 
     1.0000   1.0000   1.0000   1.0000   1.0000   1.0000   1.0000   1.0000
     1.0000   1.0000   1.0000   1.0000   1.0000   1.0000   1.0000   1.0000
     1.0000   1.0000   1.0000   1.0000   1.0000   1.0000   1.0000   1.0000
     1.0000   1.0000   1.0357   0.0000   0.0000   0.0000   0.0000   0.0000
     0.0000   0.0000

          k = 0.2638 0.2638 0.5497 (  6337 PWs)   bands (ev):

   -72.2329 -72.2268 -38.0152 -37.9972 -37.9892 -37.9874 -37.9700 -37.9440
   -28.8065  -9.8380  -9.8358  -9.8112  -0.1515   1.3004   6.6709   7.3645
     7.7058   7.9759   8.1086   8.4577   8.6973   9.4587   9.6387   9.8735
     9.9638  11.3910  12.0374  12.6099  13.6441  14.6158  15.0229  15.0631
    15.5310  16.0450

     occupation numbers 
     1.0000   1.0000   1.0000   1.0000   1.0000   1.0000   1.0000   1.0000
     1.0000   1.0000   1.0000   1.0000   1.0000   1.0000   1.0000   1.0000
     1.0000   1.0000   1.0000   1.0000   1.0000   1.0000   1.0000   1.0000
     1.0000   1.0000   1.0014   0.0143   0.0000   0.0000   0.0000   0.0000
     0.0000   0.0000

          k = 0.3501 0.3501 0.5497 (  6367 PWs)   bands (ev):

   -72.2320 -72.2276 -38.0168 -37.9959 -37.9888 -37.9844 -37.9754 -37.9428
   -28.8060  -9.8439  -9.8417  -9.8089  -0.1079   1.4936   6.9492   7.2404
     7.3212   7.9918   8.1923   8.6518   8.8778   9.2658   9.2938   9.7027
     9.8618  11.4002  11.6649  12.2515  13.0110  14.3191  15.2131  15.6297
    15.8567  16.3983

     occupation numbers 
     1.0000   1.0000   1.0000   1.0000   1.0000   1.0000   1.0000   1.0000
     1.0000   1.0000   1.0000   1.0000   1.0000   1.0000   1.0000   1.0000
     1.0000   1.0000   1.0000   1.0000   1.0000   1.0000   1.0000   1.0000
     1.0000   1.0000   1.0000   1.0832   0.0000   0.0000   0.0000   0.0000
     0.0000   0.0000

          k = 0.4364 0.4364 0.5497 (  6352 PWs)   bands (ev):

   -72.2312 -72.2285 -38.0184 -37.9986 -37.9944 -37.9901 -37.9615 -37.9417
   -28.8055  -9.8488  -9.8475  -9.8067  -0.0782   1.6994   6.9645   7.1152
     7.2729   7.9427   8.4133   8.8292   8.9946   9.0561   9.0869   9.6048
     9.8589  11.1688  11.3909  11.9331  12.3933  14.0127  15.5816  16.1203
    16.1220  16.7655

     occupation numbers 
     1.0000   1.0000   1.0000   1.0000   1.0000   1.0000   1.0000   1.0000
     1.0000   1.0000   1.0000   1.0000   1.0000   1.0000   1.0000   1.0000
     1.0000   1.0000   1.0000   1.0000   1.0000   1.0000   1.0000   1.0000
     1.0000   1.0000   1.0000   1.0000   0.6929   0.0000   0.0000   0.0000
     0.0000   0.0000

          k = 0.5227 0.5227 0.5497 (  6352 PWs)   bands (ev):

   -72.2304 -72.2292 -38.0197 -38.0105 -37.9932 -37.9911 -37.9498 -37.9406
   -28.8051  -9.8524  -9.8523  -9.8049  -0.0640   1.8858   6.6818   7.0101
     7.5768   7.9513   8.5676   8.8478   8.9210   8.9861   9.1794   9.6479
     9.8790  10.6632  11.3731  11.7498  11.8303  13.7365  15.9433  16.3652
    16.4335  16.5815

     occupation numbers 
     1.0000   1.0000   1.0000   1.0000   1.0000   1.0000   1.0000   1.0000
     1.0000   1.0000   1.0000   1.0000   1.0000   1.0000   1.0000   1.0000
     1.0000   1.0000   1.0000   1.0000   1.0000   1.0000   1.0000   1.0000
     1.0000   1.0000   1.0000   1.0000   1.0000   0.0000   0.0000   0.0000
     0.0000   0.0000

          k = 0.6091 0.6091 0.5497 (  6348 PWs)   bands (ev):

   -72.2300 -72.2297 -38.0207 -38.0183 -37.9924 -37.9919 -37.9421 -37.9399
   -28.8048  -9.8556  -9.8542  -9.8038  -0.0600   2.0163   6.5035   6.9337
     7.7902   7.9741   8.6253   8.8207   8.8643   9.0973   9.2167   9.8198
     9.8966  10.2473  11.3085  11.4286  11.7068  13.5241  15.9006  16.3260
    16.6150  16.6485

     occupation numbers 
     1.0000   1.0000   1.0000   1.0000   1.0000   1.0000   1.0000   1.0000
     1.0000   1.0000   1.0000   1.0000   1.0000   1.0000   1.0000   1.0000
     1.0000   1.0000   1.0000   1.0000   1.0000   1.0000   1.0000   1.0000
     1.0000   1.0000   1.0000   1.0000   1.0000   0.0000   0.0000   0.0000
     0.0000   0.0000

          k =-0.6091 0.6954 0.0000 (  6349 PWs)   bands (ev):

   -72.2298 -72.2298 -38.0203 -38.0201 -37.9922 -37.9921 -37.9404 -37.9403
   -28.8048  -9.8565  -9.8541  -9.8036  -0.0636   2.0469   6.4525   6.9359
     7.8204   7.9680   8.6257   8.8028   8.9038   9.1378   9.2355   9.8628
     9.8897  10.1725  11.2135  11.3775  11.7143  13.5236  15.7817  16.2440
    16.6011  16.7679

     occupation numbers 
     1.0000   1.0000   1.0000   1.0000   1.0000   1.0000   1.0000   1.0000
     1.0000   1.0000   1.0000   1.0000   1.0000   1.0000   1.0000   1.0000
     1.0000   1.0000   1.0000   1.0000   1.0000   1.0000   1.0000   1.0000
     1.0000   1.0000   1.0000   1.0000   1.0000   0.0000   0.0000   0.0000
     0.0000   0.0000

          k =-0.5227 0.7817 0.0000 (  6353 PWs)   bands (ev):

   -72.2302 -72.2295 -38.0196 -38.0145 -37.9928 -37.9916 -37.9459 -37.9408
   -28.8049  -9.8557  -9.8513  -9.8044  -0.0644   1.9522   6.5756   6.9933
     7.6747   7.9525   8.6005   8.8180   8.8986   9.0422   9.2182   9.7135
     9.8763  10.4728  11.3925  11.5312  11.7726  13.6822  15.9715  16.2508
    16.4464  16.5981

     occupation numbers 
     1.0000   1.0000   1.0000   1.0000   1.0000   1.0000   1.0000   1.0000
     1.0000   1.0000   1.0000   1.0000   1.0000   1.0000   1.0000   1.0000
     1.0000   1.0000   1.0000   1.0000   1.0000   1.0000   1.0000   1.0000
     1.0000   1.0000   1.0000   1.0000   1.0000   0.0000   0.0000   0.0000
     0.0000   0.0000

          k =-0.4364 0.8680 0.0000 (  6344 PWs)   bands (ev):

   -72.2308 -72.2288 -38.0185 -38.0042 -37.9938 -37.9906 -37.9559 -37.9417
   -28.8053  -9.8533  -9.8469  -9.8058  -0.0714   1.7864   6.8084   7.0906
     7.4128   7.9291   8.4965   8.8877   8.9068   9.0326   9.1186   9.6014
     9.8646  10.9282  11.4282  11.7679  12.1802  13.9343  15.7293  16.1072
    16.3083  16.9563

     occupation numbers 
     1.0000   1.0000   1.0000   1.0000   1.0000   1.0000   1.0000   1.0000
     1.0000   1.0000   1.0000   1.0000   1.0000   1.0000   1.0000   1.0000
     1.0000   1.0000   1.0000   1.0000   1.0000   1.0000   1.0000   1.0000
     1.0000   1.0000   1.0000   1.0000   1.0445   0.0000   0.0000   0.0000
     0.0000   0.0000

          k =-0.3501 0.9544 0.0000 (  6375 PWs)   bands (ev):

   -72.2316 -72.2280 -38.0170 -37.9952 -37.9909 -37.9894 -37.9691 -37.9429
   -28.8058  -9.8492  -9.8414  -9.8079  -0.0917   1.5849   7.0461   7.1840
     7.2068   7.9481   8.2959   8.7407   8.9568   9.0936   9.2342   9.6381
     9.8562  11.3078  11.5862  12.0310  12.7746  14.2355  15.3274  15.8430
    15.9081  16.5623

     occupation numbers 
     1.0000   1.0000   1.0000   1.0000   1.0000   1.0000   1.0000   1.0000
     1.0000   1.0000   1.0000   1.0000   1.0000   1.0000   1.0000   1.0000
     1.0000   1.0000   1.0000   1.0000   1.0000   1.0000   1.0000   1.0000
     1.0000   1.0000   1.0000   1.0011   0.0000   0.0000   0.0000   0.0000
     0.0000   0.0000

          k =-0.2638 1.0407 0.0000 (  6351 PWs)   bands (ev):

   -72.2325 -72.2272 -38.0153 -37.9966 -37.9880 -37.9833 -37.9762 -37.9440
   -28.8062  -9.8436  -9.8357  -9.8102  -0.1274   1.3823   6.7881   7.3286
     7.5205   8.0380   8.0644   8.5508   8.7750   9.3532   9.4967   9.7819
     9.9048  11.3842  11.9792  12.3628  13.4111  14.5752  15.0019  15.2847
    15.6461  16.1738

     occupation numbers 
     1.0000   1.0000   1.0000   1.0000   1.0000   1.0000   1.0000   1.0000
     1.0000   1.0000   1.0000   1.0000   1.0000   1.0000   1.0000   1.0000
     1.0000   1.0000   1.0000   1.0000   1.0000   1.0000   1.0000   1.0000
     1.0000   1.0000   1.0002   0.8477   0.0000   0.0000   0.0000   0.0000
     0.0000   0.0000

          k =-0.1774 1.1270 0.0000 (  6340 PWs)   bands (ev):

   -72.2333 -72.2264 -38.0138 -37.9979 -37.9963 -37.9868 -37.9627 -37.9452
   -28.8067  -9.8373  -9.8307  -9.8124  -0.1725   1.2067   6.5494   7.4487
     7.8606   7.8969   8.1863   8.3639   8.6063   9.4783   9.8650   9.9649
    10.1062  11.3783  12.2244  12.6766  14.0364  14.6292  14.8963  15.0133
    15.2996  15.9138

     occupation numbers 
     1.0000   1.0000   1.0000   1.0000   1.0000   1.0000   1.0000   1.0000
     1.0000   1.0000   1.0000   1.0000   1.0000   1.0000   1.0000   1.0000
     1.0000   1.0000   1.0000   1.0000   1.0000   1.0000   1.0000   1.0000
     1.0000   1.0000   1.0737   0.0017   0.0000   0.0000   0.0000   0.0000
     0.0000   0.0000

          k =-0.0911 1.2133 0.0000 (  6345 PWs)   bands (ev):

   -72.2339 -72.2258 -38.0126 -38.0065 -37.9989 -37.9858 -37.9524 -37.9460
   -28.8071  -9.8316  -9.8272  -9.8141  -0.2145   1.0786   6.3827   7.5575
     7.7139   8.2163   8.2190   8.3451   8.4672   9.4830  10.1287  10.2781
    10.4246  11.3140  12.2019  12.9051  14.1552  14.5719  14.7498  14.9876
    15.3506  15.8566

     occupation numbers 
     1.0000   1.0000   1.0000   1.0000   1.0000   1.0000   1.0000   1.0000
     1.0000   1.0000   1.0000   1.0000   1.0000   1.0000   1.0000   1.0000
     1.0000   1.0000   1.0000   1.0000   1.0000   1.0000   1.0000   1.0000
     1.0000   1.0000   1.0594   0.0000   0.0000   0.0000   0.0000   0.0000
     0.0000   0.0000

          k =-0.0048 1.2997 0.0000 (  6320 PWs)   bands (ev):

   -72.2342 -72.2254 -38.0119 -38.0117 -37.9994 -37.9852 -37.9467 -37.9465
   -28.8072  -9.8275  -9.8260  -9.8151  -0.2398   1.0112   6.2975   7.6282
     7.6399   8.1340   8.3819   8.4158   8.4461   9.4610  10.2256  10.6280
    10.6853  11.1902  12.0649  13.0222  13.9042  14.3443  14.8835  14.9330
    15.6022  15.9445

     occupation numbers 
     1.0000   1.0000   1.0000   1.0000   1.0000   1.0000   1.0000   1.0000
     1.0000   1.0000   1.0000   1.0000   1.0000   1.0000   1.0000   1.0000
     1.0000   1.0000   1.0000   1.0000   1.0000   1.0000   1.0000   1.0000
     1.0000   1.0000   1.0033   0.0000   0.0000   0.0000   0.0000   0.0000
     0.0000   0.0000

     the Fermi energy is    12.4474 ev

!    total energy              =   -1509.82948766 Ry
     total all-electron energy =    -30589.088580 Ry
     estimated scf accuracy    <          9.8E-09 Ry
     smearing contrib. (-TS)   =       0.00008392 Ry
     internal energy E=F+TS    =   -1509.82957158 Ry

     The total energy is F=E-TS. E is the sum of the following terms:
     one-electron contribution =    -328.45561100 Ry
     hartree contribution      =     191.93244730 Ry
     xc contribution           =     -97.08130838 Ry
     ewald contribution        =    -393.65311753 Ry
     one-center paw contrib.   =    -882.57198198 Ry
      -> PAW hartree energy AE =       6.99966572 Ry
      -> PAW hartree energy PS =      -6.98200520 Ry
      -> PAW xc energy AE      =    -166.91532661 Ry
      -> PAW xc energy PS      =      10.83365987 Ry
      -> total E_H with PAW    =     191.95010783 Ry
      -> total E_XC with PAW   =    -253.16297513 Ry

     convergence has been achieved in  11 iterations

     Writing all to output data dir ./tmp/capd2as2.save/ :
     XML data file, charge density, pseudopotentials, collected wavefunctions

     init_run     :    215.07s CPU    231.77s WALL (       1 calls)
     electrons    :   5836.35s CPU   6173.35s WALL (       1 calls)

     Called by init_run:
     wfcinit      :    212.69s CPU    228.88s WALL (       1 calls)
     wfcinit:atom :      0.81s CPU      0.82s WALL (    1328 calls)
     wfcinit:wfcr :    206.49s CPU    222.59s WALL (    1328 calls)
     potinit      :      1.01s CPU      1.08s WALL (       1 calls)
     hinit0       :      0.60s CPU      0.67s WALL (       1 calls)

     Called by electrons:
     c_bands      :   5451.27s CPU   5753.13s WALL (      11 calls)
     sum_band     :    377.15s CPU    410.35s WALL (      11 calls)
     v_of_rho     :      1.69s CPU      1.80s WALL (      12 calls)
     v_h          :      0.13s CPU      0.14s WALL (      12 calls)
     v_xc         :      1.55s CPU      1.66s WALL (      12 calls)
     newd         :      2.07s CPU      3.96s WALL (      12 calls)
     PAW_pot      :      4.55s CPU      4.57s WALL (      12 calls)
     mix_rho      :      0.24s CPU      0.26s WALL (      11 calls)

     Called by c_bands:
     init_us_2    :     39.53s CPU     40.16s WALL (   30544 calls)
     cegterg      :   5365.84s CPU   5666.68s WALL (   14608 calls)

     Called by sum_band:
     sum_band:wei :      0.63s CPU      0.62s WALL (      11 calls)
     sum_band:loo :    373.92s CPU    405.09s WALL (      11 calls)
     sum_band:buf :      3.95s CPU      4.06s WALL (   14608 calls)
     sum_band:ini :     19.51s CPU     19.67s WALL (   14608 calls)
     sum_band:cal :    102.79s CPU    106.03s WALL (   14608 calls)
     sum_band:bec :      1.22s CPU      1.23s WALL (   14608 calls)
     addusdens    :      2.09s CPU      4.11s WALL (      11 calls)
                                        0.00s GPU  (      11 calls)
     addusd:skk   :      0.01s CPU      0.01s WALL (      33 calls)
                                        0.00s GPU  (      33 calls)

     Called by *egterg:
     cdiaghg      :    193.02s CPU    195.71s WALL (   86889 calls)
     cegterg:over :    401.11s CPU    405.36s WALL (   72281 calls)
     cegterg:upda :    150.68s CPU    153.52s WALL (   72281 calls)
     cegterg:last :    365.63s CPU    366.29s WALL (   34663 calls)
     h_psi        :   3892.20s CPU   4193.28s WALL (   88217 calls)
     s_psi        :    231.17s CPU    235.29s WALL (   88217 calls)
     g_psi        :      4.05s CPU      4.08s WALL (   72281 calls)

     Called by h_psi:
     h_psi:calbec :    309.38s CPU    321.77s WALL (   88217 calls)
     vloc_psi     :   3341.39s CPU   3627.38s WALL (   88217 calls)
     add_vuspsi   :    233.06s CPU    235.51s WALL (   88217 calls)

     General routines
     calbec       :    411.33s CPU    427.23s WALL (  102825 calls)
     fft          :      1.34s CPU      1.47s WALL (     154 calls)
     ffts         :      0.24s CPU      0.24s WALL (      23 calls)
     fftw         :   2434.80s CPU   2653.39s WALL ( 3405724 calls)
     interpolate  :      0.33s CPU      0.34s WALL (      12 calls)

     Parallel routines

     PAW routines
     PAW_pot      :      4.55s CPU      4.57s WALL (      12 calls)
     PAW_symme    :      0.01s CPU      0.01s WALL (      23 calls)

     PWSCF        :      1h40m CPU      1h47m WALL


   This run was terminated on:  23:26:10   7Nov2025            

=------------------------------------------------------------------------------=
   JOB DONE.
=------------------------------------------------------------------------------=
