
     Program PWSCF v.7.4.1 starts on  9Nov2025 at  9:10:36 

     This program is part of the open-source Quantum ESPRESSO suite
     for quantum simulation of materials; please cite
         "P. Giannozzi et al., J. Phys.:Condens. Matter 21 395502 (2009);
         "P. Giannozzi et al., J. Phys.:Condens. Matter 29 465901 (2017);
         "P. Giannozzi et al., J. Chem. Phys. 152 154105 (2020);
          URL http://www.quantum-espresso.org", 
     in publications or presentations arising from this work. More details at
     http://www.quantum-espresso.org/quote

     Parallel version (MPI), running on     8 processors

     MPI processes distributed on     1 nodes
     10394 MiB available memory on the printing compute node when the environment starts

     Waiting for input...
     Reading input from standard input

     Current dimensions of program PWSCF are:
     Max number of different atomic species (ntypx) = 10
     Max number of k-points (npk) =  40000
     Max angular momentum in pseudopotentials (lmaxx) =  4
     file Ca.pbe-spn-kjpaw_psl.1.0.0.UPF: wavefunction(s)  3S renormalized
     file Pd.pbe-spn-kjpaw_psl.1.0.0.UPF: wavefunction(s)  4S 5S 4D renormalized

     Atomic positions and unit cell read from directory:
     ./outputs/capd2as2.save/

     Message from routine setup:
     using ibrav=0 with symmetry is DISCOURAGED, use correct ibrav instead
     [opt_tetra]  Optimized tetrahedron method is used.

     R & G space division:  proc/nbgrp/npool/nimage =       8
     Subspace diagonalization in iterative solution of the eigenvalue problem:
     a serial algorithm will be used


     Parallelization info
     --------------------
     sticks:   dense  smooth     PW     G-vecs:    dense   smooth      PW
     Min         620     308     98                17937     6330    1160
     Max         621     309     99                17938     6332    1161
     Sum        4967    2469    789               143497    50647    9285

     Using Slab Decomposition



     bravais-lattice index     =            0
     lattice parameter (alat)  =      11.2488  a.u.
     unit-cell volume          =     640.9372 (a.u.)^3
     number of atoms/cell      =            5
     number of atomic types    =            3
     number of electrons       =        56.00
     number of Kohn-Sham states=           80
     kinetic-energy cutoff     =      70.0000  Ry
     charge density cutoff     =     560.0000  Ry
     Exchange-correlation= SLA  PW   PBX  PBC
                           (   1   4   3   4   0   0   0)

     celldm(1)=  11.248812  celldm(2)=   0.000000  celldm(3)=   0.000000
     celldm(4)=   0.000000  celldm(5)=   0.000000  celldm(6)=   0.000000

     crystal axes: (cart. coord. in units of alat)
               a(1) = (  -0.362008   0.362008   0.859011 )  
               a(2) = (   0.362008  -0.362008   0.859011 )  
               a(3) = (   0.362008   0.362008  -0.859011 )  

     reciprocal axes: (cart. coord. in units 2 pi/alat)
               b(1) = (  0.000000  1.381184  0.582065 )  
               b(2) = (  1.381184  0.000000  0.582065 )  
               b(3) = (  1.381184  1.381184  0.000000 )  


     PseudoPot. # 1 for As read from file:
     ./pseudopotentials/As.pbe-n-kjpaw_psl.1.0.0.UPF
     MD5 check sum: 21b474db91924651be503153fb2dbf55
     Pseudo is Projector augmented-wave + core cor, Zval =  5.0
     Generated using &quot;atomic&quot; code by A. Dal Corso  v.6.3
     Shape of augmentation charge: PSQ
     Using radial grid of 1209 points,  4 beta functions with: 
                l(1) =   0
                l(2) =   0
                l(3) =   1
                l(4) =   1
     Q(r) pseudized with 0 coefficients 


     PseudoPot. # 2 for Ca read from file:
     ./pseudopotentials/Ca.pbe-spn-kjpaw_psl.1.0.0.UPF
     MD5 check sum: 1e11ab70c77b02a7d7d676f41d47b751
     Pseudo is Projector augmented-wave + core cor, Zval = 10.0
     Generated using &quot;atomic&quot; code by A. Dal Corso  v.6.4.1
     Shape of augmentation charge: PSQ
     Using radial grid of 1169 points,  6 beta functions with: 
                l(1) =   0
                l(2) =   0
                l(3) =   1
                l(4) =   1
                l(5) =   2
                l(6) =   2
     Q(r) pseudized with 0 coefficients 


     PseudoPot. # 3 for Pd read from file:
     ./pseudopotentials/Pd.pbe-spn-kjpaw_psl.1.0.0.UPF
     MD5 check sum: 06b619ac5e4bb0d62f7b469c9bdd1b99
     Pseudo is Projector augmented-wave + core cor, Zval = 18.0
     Generated using &quot;atomic&quot; code by A. Dal Corso  v.6.3
     Shape of augmentation charge: PSQ
     Using radial grid of 1235 points,  6 beta functions with: 
                l(1) =   0
                l(2) =   0
                l(3) =   1
                l(4) =   1
                l(5) =   2
                l(6) =   2
     Q(r) pseudized with 0 coefficients 


     atomic species   valence    mass     pseudopotential
     As                5.00    74.92200     As( 1.00)
     Ca               10.00    40.07800     Ca( 1.00)
     Pd               18.00   106.42000     Pd( 1.00)

     16 Sym. Ops., with inversion, found


                                    s                        frac. trans.

      isym =  1     identity                                     

 cryst.   s( 1) = (     1          0          0      )
                  (     0          1          0      )
                  (     0          0          1      )

 cart.    s( 1) = (  1.0000000  0.0000000  0.0000000 )
                  (  0.0000000  1.0000000  0.0000000 )
                  (  0.0000000  0.0000000  1.0000000 )


      isym =  2     180 deg rotation - cart. axis [0,0,1]        

 cryst.   s( 2) = (     0          1          0      )
                  (     1          0          0      )
                  (    -1         -1         -1      )

 cart.    s( 2) = ( -1.0000000  0.0000000  0.0000000 )
                  (  0.0000000 -1.0000000  0.0000000 )
                  (  0.0000000  0.0000000  1.0000000 )


      isym =  3     180 deg rotation - cart. axis [0,1,0]        

 cryst.   s( 3) = (     0          0          1      )
                  (    -1         -1         -1      )
                  (     1          0          0      )

 cart.    s( 3) = ( -1.0000000  0.0000000  0.0000000 )
                  (  0.0000000  1.0000000  0.0000000 )
                  (  0.0000000  0.0000000 -1.0000000 )


      isym =  4     180 deg rotation - cart. axis [1,0,0]        

 cryst.   s( 4) = (    -1         -1         -1      )
                  (     0          0          1      )
                  (     0          1          0      )

 cart.    s( 4) = (  1.0000000  0.0000000  0.0000000 )
                  (  0.0000000 -1.0000000  0.0000000 )
                  (  0.0000000  0.0000000 -1.0000000 )


      isym =  5     180 deg rotation - cart. axis [1,1,0]        

 cryst.   s( 5) = (    -1          0          0      )
                  (     0         -1          0      )
                  (     1          1          1      )

 cart.    s( 5) = (  0.0000000  1.0000000  0.0000000 )
                  (  1.0000000  0.0000000  0.0000000 )
                  (  0.0000000  0.0000000 -1.0000000 )


      isym =  6     180 deg rotation - cart. axis [1,-1,0]       

 cryst.   s( 6) = (     0         -1          0      )
                  (    -1          0          0      )
                  (     0          0         -1      )

 cart.    s( 6) = (  0.0000000 -1.0000000  0.0000000 )
                  ( -1.0000000  0.0000000  0.0000000 )
                  (  0.0000000  0.0000000 -1.0000000 )


      isym =  7      90 deg rotation - cart. axis [0,0,-1]       

 cryst.   s( 7) = (     1          1          1      )
                  (     0          0         -1      )
                  (    -1          0          0      )

 cart.    s( 7) = (  0.0000000  1.0000000  0.0000000 )
                  ( -1.0000000  0.0000000  0.0000000 )
                  (  0.0000000  0.0000000  1.0000000 )


      isym =  8      90 deg rotation - cart. axis [0,0,1]        

 cryst.   s( 8) = (     0          0         -1      )
                  (     1          1          1      )
                  (     0         -1          0      )

 cart.    s( 8) = (  0.0000000 -1.0000000  0.0000000 )
                  (  1.0000000  0.0000000  0.0000000 )
                  (  0.0000000  0.0000000  1.0000000 )


      isym =  9     inversion                                    

 cryst.   s( 9) = (    -1          0          0      )
                  (     0         -1          0      )
                  (     0          0         -1      )

 cart.    s( 9) = ( -1.0000000  0.0000000  0.0000000 )
                  (  0.0000000 -1.0000000  0.0000000 )
                  (  0.0000000  0.0000000 -1.0000000 )


      isym = 10     inv. 180 deg rotation - cart. axis [0,0,1]   

 cryst.   s(10) = (     0         -1          0      )
                  (    -1          0          0      )
                  (     1          1          1      )

 cart.    s(10) = (  1.0000000  0.0000000  0.0000000 )
                  (  0.0000000  1.0000000  0.0000000 )
                  (  0.0000000  0.0000000 -1.0000000 )


      isym = 11     inv. 180 deg rotation - cart. axis [0,1,0]   

 cryst.   s(11) = (     0          0         -1      )
                  (     1          1          1      )
                  (    -1          0          0      )

 cart.    s(11) = (  1.0000000  0.0000000  0.0000000 )
                  (  0.0000000 -1.0000000  0.0000000 )
                  (  0.0000000  0.0000000  1.0000000 )


      isym = 12     inv. 180 deg rotation - cart. axis [1,0,0]   

 cryst.   s(12) = (     1          1          1      )
                  (     0          0         -1      )
                  (     0         -1          0      )

 cart.    s(12) = ( -1.0000000  0.0000000  0.0000000 )
                  (  0.0000000  1.0000000  0.0000000 )
                  (  0.0000000  0.0000000  1.0000000 )


      isym = 13     inv. 180 deg rotation - cart. axis [1,1,0]   

 cryst.   s(13) = (     1          0          0      )
                  (     0          1          0      )
                  (    -1         -1         -1      )

 cart.    s(13) = (  0.0000000 -1.0000000  0.0000000 )
                  ( -1.0000000  0.0000000  0.0000000 )
                  (  0.0000000  0.0000000  1.0000000 )


      isym = 14     inv. 180 deg rotation - cart. axis [1,-1,0]  

 cryst.   s(14) = (     0          1          0      )
                  (     1          0          0      )
                  (     0          0          1      )

 cart.    s(14) = (  0.0000000  1.0000000  0.0000000 )
                  (  1.0000000  0.0000000  0.0000000 )
                  (  0.0000000  0.0000000  1.0000000 )


      isym = 15     inv.  90 deg rotation - cart. axis [0,0,-1]  

 cryst.   s(15) = (    -1         -1         -1      )
                  (     0          0          1      )
                  (     1          0          0      )

 cart.    s(15) = (  0.0000000 -1.0000000  0.0000000 )
                  (  1.0000000  0.0000000  0.0000000 )
                  (  0.0000000  0.0000000 -1.0000000 )


      isym = 16     inv.  90 deg rotation - cart. axis [0,0,1]   

 cryst.   s(16) = (     0          0          1      )
                  (    -1         -1         -1      )
                  (     0          1          0      )

 cart.    s(16) = (  0.0000000  1.0000000  0.0000000 )
                  ( -1.0000000  0.0000000  0.0000000 )
                  (  0.0000000  0.0000000 -1.0000000 )


   Cartesian axes

     site n.     atom                  positions (alat units)
         1        As     tau(   1) = (   0.0000000   0.0000000   0.6524144  )
         2        As     tau(   2) = (   0.3620082   0.3620082   0.2065968  )
         3        Ca     tau(   3) = (   0.0000000   0.0000000   0.0000000  )
         4        Pd     tau(   4) = (  -0.0000000   0.3620082   0.4295056  )
         5        Pd     tau(   5) = (   0.3620082  -0.0000000   0.4295056  )

   Crystallographic axes

     site n.     atom                  positions (cryst. coord.)
         1        As     tau(   1) = (  0.3797473  0.3797473  0.0000000  )
         2        As     tau(   2) = (  0.6202527  0.6202527  1.0000000  )
         3        Ca     tau(   3) = (  0.0000000  0.0000000  0.0000000  )
         4        Pd     tau(   4) = (  0.7500000  0.2500000  0.5000000  )
         5        Pd     tau(   5) = (  0.2500000  0.7500000  0.5000000  )

     number of k points=   904 (tetrahedron method)
                       cart. coord. in units 2pi/alat
        k(    1) = (   0.0000000   0.0000000   0.0000000), wk =   0.0002894
        k(    2) = (   0.1150987   0.1150987   0.0000000), wk =   0.0011574
        k(    3) = (   0.2301974   0.2301974   0.0000000), wk =   0.0011574
        k(    4) = (   0.3452961   0.3452961   0.0000000), wk =   0.0011574
        k(    5) = (   0.4603948   0.4603948   0.0000000), wk =   0.0011574
        k(    6) = (   0.5754935   0.5754935   0.0000000), wk =   0.0011574
        k(    7) = (  -0.6905921  -0.6905921   0.0000000), wk =   0.0005787
        k(    8) = (   0.0575493   0.0000000   0.0242527), wk =   0.0011574
        k(    9) = (   0.1726480   0.1150987   0.0242527), wk =   0.0023148
        k(   10) = (   0.2877467   0.2301974   0.0242527), wk =   0.0023148
        k(   11) = (   0.4028454   0.3452961   0.0242527), wk =   0.0023148
        k(   12) = (   0.5179441   0.4603948   0.0242527), wk =   0.0023148
        k(   13) = (   0.6330428   0.5754935   0.0242527), wk =   0.0023148
        k(   14) = (  -0.6330428  -0.6905921   0.0242527), wk =   0.0023148
        k(   15) = (  -0.5179441  -0.5754935   0.0242527), wk =   0.0023148
        k(   16) = (  -0.4028454  -0.4603948   0.0242527), wk =   0.0023148
        k(   17) = (  -0.2877467  -0.3452961   0.0242527), wk =   0.0023148
        k(   18) = (  -0.1726480  -0.2301974   0.0242527), wk =   0.0023148
        k(   19) = (  -0.0575493  -0.1150987   0.0242527), wk =   0.0023148
        k(   20) = (   0.1150987   0.0000000   0.0485054), wk =   0.0023148
        k(   21) = (   0.2301974   0.1150987   0.0485054), wk =   0.0046296
        k(   22) = (   0.3452961   0.2301974   0.0485054), wk =   0.0046296
        k(   23) = (   0.4603948   0.3452961   0.0485054), wk =   0.0046296
        k(   24) = (   0.5754935   0.4603948   0.0485054), wk =   0.0046296
        k(   25) = (   0.6905921   0.5754935   0.0485054), wk =   0.0046296
        k(   26) = (   0.1726480   0.0000000   0.0727581), wk =   0.0011574
        k(   27) = (   0.2877467   0.1150987   0.0727581), wk =   0.0023148
        k(   28) = (   0.4028454   0.2301974   0.0727581), wk =   0.0023148
        k(   29) = (   0.5179441   0.3452961   0.0727581), wk =   0.0023148
        k(   30) = (   0.6330428   0.4603948   0.0727581), wk =   0.0023148
        k(   31) = (   0.7481415   0.5754935   0.0727581), wk =   0.0023148
        k(   32) = (  -0.5179441  -0.6905921   0.0727581), wk =   0.0023148
        k(   33) = (  -0.4028454  -0.5754935   0.0727581), wk =   0.0023148
        k(   34) = (  -0.2877467  -0.4603948   0.0727581), wk =   0.0023148
        k(   35) = (  -0.1726480  -0.3452961   0.0727581), wk =   0.0023148
        k(   36) = (  -0.0575493  -0.2301974   0.0727581), wk =   0.0023148
        k(   37) = (   0.0575493  -0.1150987   0.0727581), wk =   0.0023148
        k(   38) = (   0.2301974   0.0000000   0.0970108), wk =   0.0023148
        k(   39) = (   0.3452961   0.1150987   0.0970108), wk =   0.0046296
        k(   40) = (   0.4603948   0.2301974   0.0970108), wk =   0.0046296
        k(   41) = (   0.5754935   0.3452961   0.0970108), wk =   0.0046296
        k(   42) = (   0.6905921   0.4603948   0.0970108), wk =   0.0046296
        k(   43) = (   0.8056908   0.5754935   0.0970108), wk =   0.0023148
        k(   44) = (   0.1150987  -0.1150987   0.0970108), wk =   0.0023148
        k(   45) = (   0.2877467   0.0000000   0.1212635), wk =   0.0011574
        k(   46) = (   0.4028454   0.1150987   0.1212635), wk =   0.0023148
        k(   47) = (   0.5179441   0.2301974   0.1212635), wk =   0.0023148
        k(   48) = (   0.6330428   0.3452961   0.1212635), wk =   0.0023148
        k(   49) = (   0.7481415   0.4603948   0.1212635), wk =   0.0023148
        k(   50) = (   0.8632402   0.5754935   0.1212635), wk =   0.0023148
        k(   51) = (  -0.4028454  -0.6905921   0.1212635), wk =   0.0023148
        k(   52) = (  -0.2877467  -0.5754935   0.1212635), wk =   0.0023148
        k(   53) = (  -0.1726480  -0.4603948   0.1212635), wk =   0.0023148
        k(   54) = (  -0.0575493  -0.3452961   0.1212635), wk =   0.0023148
        k(   55) = (   0.0575493  -0.2301974   0.1212635), wk =   0.0023148
        k(   56) = (   0.1726480  -0.1150987   0.1212635), wk =   0.0023148
        k(   57) = (   0.3452961   0.0000000   0.1455162), wk =   0.0023148
        k(   58) = (   0.4603948   0.1150987   0.1455162), wk =   0.0046296
        k(   59) = (   0.5754935   0.2301974   0.1455162), wk =   0.0046296
        k(   60) = (   0.6905921   0.3452961   0.1455162), wk =   0.0046296
        k(   61) = (   0.8056908   0.4603948   0.1455162), wk =   0.0046296
        k(   62) = (   0.1150987  -0.2301974   0.1455162), wk =   0.0046296
        k(   63) = (   0.4028454   0.0000000   0.1697688), wk =   0.0011574
        k(   64) = (   0.5179441   0.1150987   0.1697688), wk =   0.0023148
        k(   65) = (   0.6330428   0.2301974   0.1697688), wk =   0.0023148
        k(   66) = (   0.7481415   0.3452961   0.1697688), wk =   0.0023148
        k(   67) = (   0.8632402   0.4603948   0.1697688), wk =   0.0023148
        k(   68) = (   0.9783389   0.5754935   0.1697688), wk =   0.0023148
        k(   69) = (  -0.2877467  -0.6905921   0.1697688), wk =   0.0023148
        k(   70) = (  -0.1726480  -0.5754935   0.1697688), wk =   0.0023148
        k(   71) = (  -0.0575493  -0.4603948   0.1697688), wk =   0.0023148
        k(   72) = (   0.0575493  -0.3452961   0.1697688), wk =   0.0023148
        k(   73) = (   0.1726480  -0.2301974   0.1697688), wk =   0.0023148
        k(   74) = (   0.2877467  -0.1150987   0.1697688), wk =   0.0023148
        k(   75) = (   0.4603948   0.0000000   0.1940215), wk =   0.0023148
        k(   76) = (   0.5754935   0.1150987   0.1940215), wk =   0.0046296
        k(   77) = (   0.6905921   0.2301974   0.1940215), wk =   0.0046296
        k(   78) = (   0.8056908   0.3452961   0.1940215), wk =   0.0046296
        k(   79) = (   0.9207895   0.4603948   0.1940215), wk =   0.0023148
        k(   80) = (   0.1150987  -0.3452961   0.1940215), wk =   0.0046296
        k(   81) = (   0.2301974  -0.2301974   0.1940215), wk =   0.0023148
        k(   82) = (   0.5179441   0.0000000   0.2182742), wk =   0.0011574
        k(   83) = (   0.6330428   0.1150987   0.2182742), wk =   0.0023148
        k(   84) = (   0.7481415   0.2301974   0.2182742), wk =   0.0023148
        k(   85) = (   0.8632402   0.3452961   0.2182742), wk =   0.0023148
        k(   86) = (   0.9783389   0.4603948   0.2182742), wk =   0.0023148
        k(   87) = (   1.0934376   0.5754935   0.2182742), wk =   0.0023148
        k(   88) = (  -0.1726480  -0.6905921   0.2182742), wk =   0.0023148
        k(   89) = (  -0.0575493  -0.5754935   0.2182742), wk =   0.0023148
        k(   90) = (   0.0575493  -0.4603948   0.2182742), wk =   0.0023148
        k(   91) = (   0.1726480  -0.3452961   0.2182742), wk =   0.0023148
        k(   92) = (   0.2877467  -0.2301974   0.2182742), wk =   0.0023148
        k(   93) = (   0.4028454  -0.1150987   0.2182742), wk =   0.0023148
        k(   94) = (   0.5754935   0.0000000   0.2425269), wk =   0.0023148
        k(   95) = (   0.6905921   0.1150987   0.2425269), wk =   0.0046296
        k(   96) = (   0.8056908   0.2301974   0.2425269), wk =   0.0046296
        k(   97) = (   0.9207895   0.3452961   0.2425269), wk =   0.0046296
        k(   98) = (   0.1150987  -0.4603948   0.2425269), wk =   0.0046296
        k(   99) = (   0.2301974  -0.3452961   0.2425269), wk =   0.0046296
        k(  100) = (   0.6330428   0.0000000   0.2667796), wk =   0.0011574
        k(  101) = (   0.7481415   0.1150987   0.2667796), wk =   0.0023148
        k(  102) = (   0.8632402   0.2301974   0.2667796), wk =   0.0023148
        k(  103) = (   0.9783389   0.3452961   0.2667796), wk =   0.0023148
        k(  104) = (   1.0934376   0.4603948   0.2667796), wk =   0.0023148
        k(  105) = (   1.2085363   0.5754935   0.2667796), wk =   0.0023148
        k(  106) = (  -0.0575493  -0.6905921   0.2667796), wk =   0.0023148
        k(  107) = (   0.0575493  -0.5754935   0.2667796), wk =   0.0023148
        k(  108) = (   0.1726480  -0.4603948   0.2667796), wk =   0.0023148
        k(  109) = (   0.2877467  -0.3452961   0.2667796), wk =   0.0023148
        k(  110) = (   0.4028454  -0.2301974   0.2667796), wk =   0.0023148
        k(  111) = (   0.5179441  -0.1150987   0.2667796), wk =   0.0023148
        k(  112) = (  -0.6905921   0.0000000  -0.2910323), wk =   0.0011574
        k(  113) = (  -0.5754935   0.1150987  -0.2910323), wk =   0.0046296
        k(  114) = (  -0.4603948   0.2301974  -0.2910323), wk =   0.0046296
        k(  115) = (  -0.3452961   0.3452961  -0.2910323), wk =   0.0023148
        k(  116) = (   0.0575493   0.0575493   0.0485054), wk =   0.0011574
        k(  117) = (   0.1726480   0.1726480   0.0485054), wk =   0.0011574
        k(  118) = (   0.2877467   0.2877467   0.0485054), wk =   0.0011574
        k(  119) = (   0.4028454   0.4028454   0.0485054), wk =   0.0011574
        k(  120) = (   0.5179441   0.5179441   0.0485054), wk =   0.0011574
        k(  121) = (   0.6330428   0.6330428   0.0485054), wk =   0.0011574
        k(  122) = (   0.2301974   0.1726480   0.0727581), wk =   0.0023148
        k(  123) = (   0.3452961   0.2877467   0.0727581), wk =   0.0023148
        k(  124) = (   0.4603948   0.4028454   0.0727581), wk =   0.0023148
        k(  125) = (   0.5754935   0.5179441   0.0727581), wk =   0.0023148
        k(  126) = (   0.6905921   0.6330428   0.0727581), wk =   0.0023148
        k(  127) = (  -0.5754935  -0.6330428   0.0727581), wk =   0.0023148
        k(  128) = (  -0.4603948  -0.5179441   0.0727581), wk =   0.0023148
        k(  129) = (  -0.3452961  -0.4028454   0.0727581), wk =   0.0023148
        k(  130) = (  -0.2301974  -0.2877467   0.0727581), wk =   0.0023148
        k(  131) = (  -0.1150987  -0.1726480   0.0727581), wk =   0.0023148
        k(  132) = (  -0.0000000  -0.0575493   0.0727581), wk =   0.0011574
        k(  133) = (   0.1726480   0.0575493   0.0970108), wk =   0.0023148
        k(  134) = (   0.2877467   0.1726480   0.0970108), wk =   0.0023148
        k(  135) = (   0.4028454   0.2877467   0.0970108), wk =   0.0023148
        k(  136) = (   0.5179441   0.4028454   0.0970108), wk =   0.0023148
        k(  137) = (   0.6330428   0.5179441   0.0970108), wk =   0.0023148
        k(  138) = (   0.7481415   0.6330428   0.0970108), wk =   0.0011574
        k(  139) = (   0.0575493  -0.0575493   0.0970108), wk =   0.0011574
        k(  140) = (   0.3452961   0.1726480   0.1212635), wk =   0.0023148
        k(  141) = (   0.4603948   0.2877467   0.1212635), wk =   0.0023148
        k(  142) = (   0.5754935   0.4028454   0.1212635), wk =   0.0023148
        k(  143) = (   0.6905921   0.5179441   0.1212635), wk =   0.0023148
        k(  144) = (   0.8056908   0.6330428   0.1212635), wk =   0.0023148
        k(  145) = (  -0.4603948  -0.6330428   0.1212635), wk =   0.0023148
        k(  146) = (  -0.3452961  -0.5179441   0.1212635), wk =   0.0023148
        k(  147) = (  -0.2301974  -0.4028454   0.1212635), wk =   0.0023148
        k(  148) = (  -0.1150987  -0.2877467   0.1212635), wk =   0.0023148
        k(  149) = (   0.0000000  -0.1726480   0.1212635), wk =   0.0011574
        k(  150) = (   0.1150987  -0.0575493   0.1212635), wk =   0.0023148
        k(  151) = (   0.2877467   0.0575493   0.1455162), wk =   0.0023148
        k(  152) = (   0.4028454   0.1726480   0.1455162), wk =   0.0023148
        k(  153) = (   0.5179441   0.2877467   0.1455162), wk =   0.0023148
        k(  154) = (   0.6330428   0.4028454   0.1455162), wk =   0.0023148
        k(  155) = (   0.7481415   0.5179441   0.1455162), wk =   0.0023148
        k(  156) = (   0.0575493  -0.1726480   0.1455162), wk =   0.0023148
        k(  157) = (   0.4603948   0.1726480   0.1697688), wk =   0.0023148
        k(  158) = (   0.5754935   0.2877467   0.1697688), wk =   0.0023148
        k(  159) = (   0.6905921   0.4028454   0.1697688), wk =   0.0023148
        k(  160) = (   0.8056908   0.5179441   0.1697688), wk =   0.0023148
        k(  161) = (   0.9207895   0.6330428   0.1697688), wk =   0.0023148
        k(  162) = (  -0.3452961  -0.6330428   0.1697688), wk =   0.0023148
        k(  163) = (  -0.2301974  -0.5179441   0.1697688), wk =   0.0023148
        k(  164) = (  -0.1150987  -0.4028454   0.1697688), wk =   0.0023148
        k(  165) = (   0.0000000  -0.2877467   0.1697688), wk =   0.0011574
        k(  166) = (   0.1150987  -0.1726480   0.1697688), wk =   0.0023148
        k(  167) = (   0.2301974  -0.0575493   0.1697688), wk =   0.0023148
        k(  168) = (   0.4028454   0.0575493   0.1940215), wk =   0.0023148
        k(  169) = (   0.5179441   0.1726480   0.1940215), wk =   0.0023148
        k(  170) = (   0.6330428   0.2877467   0.1940215), wk =   0.0023148
        k(  171) = (   0.7481415   0.4028454   0.1940215), wk =   0.0023148
        k(  172) = (   0.8632402   0.5179441   0.1940215), wk =   0.0011574
        k(  173) = (   0.0575493  -0.2877467   0.1940215), wk =   0.0023148
        k(  174) = (   0.1726480  -0.1726480   0.1940215), wk =   0.0011574
        k(  175) = (   0.5754935   0.1726480   0.2182742), wk =   0.0023148
        k(  176) = (   0.6905921   0.2877467   0.2182742), wk =   0.0023148
        k(  177) = (   0.8056908   0.4028454   0.2182742), wk =   0.0023148
        k(  178) = (   0.9207895   0.5179441   0.2182742), wk =   0.0023148
        k(  179) = (   1.0358882   0.6330428   0.2182742), wk =   0.0023148
        k(  180) = (  -0.2301974  -0.6330428   0.2182742), wk =   0.0023148
        k(  181) = (  -0.1150987  -0.5179441   0.2182742), wk =   0.0023148
        k(  182) = (  -0.0000000  -0.4028454   0.2182742), wk =   0.0011574
        k(  183) = (   0.1150987  -0.2877467   0.2182742), wk =   0.0023148
        k(  184) = (   0.2301974  -0.1726480   0.2182742), wk =   0.0023148
        k(  185) = (   0.3452961  -0.0575493   0.2182742), wk =   0.0023148
        k(  186) = (   0.5179441   0.0575493   0.2425269), wk =   0.0023148
        k(  187) = (   0.6330428   0.1726480   0.2425269), wk =   0.0023148
        k(  188) = (   0.7481415   0.2877467   0.2425269), wk =   0.0023148
        k(  189) = (   0.8632402   0.4028454   0.2425269), wk =   0.0023148
        k(  190) = (   0.0575493  -0.4028454   0.2425269), wk =   0.0023148
        k(  191) = (   0.1726480  -0.2877467   0.2425269), wk =   0.0023148
        k(  192) = (   0.6905921   0.1726480   0.2667796), wk =   0.0023148
        k(  193) = (   0.8056908   0.2877467   0.2667796), wk =   0.0023148
        k(  194) = (   0.9207895   0.4028454   0.2667796), wk =   0.0023148
        k(  195) = (   1.0358882   0.5179441   0.2667796), wk =   0.0023148
        k(  196) = (   1.1509869   0.6330428   0.2667796), wk =   0.0023148
        k(  197) = (  -0.1150987  -0.6330428   0.2667796), wk =   0.0023148
        k(  198) = (   0.0000000  -0.5179441   0.2667796), wk =   0.0011574
        k(  199) = (   0.1150987  -0.4028454   0.2667796), wk =   0.0023148
        k(  200) = (   0.2301974  -0.2877467   0.2667796), wk =   0.0023148
        k(  201) = (   0.3452961  -0.1726480   0.2667796), wk =   0.0023148
        k(  202) = (   0.4603948  -0.0575493   0.2667796), wk =   0.0023148
        k(  203) = (   0.6330428   0.0575493   0.2910323), wk =   0.0023148
        k(  204) = (   0.7481415   0.1726480   0.2910323), wk =   0.0023148
        k(  205) = (   0.8632402   0.2877467   0.2910323), wk =   0.0023148
        k(  206) = (   0.9783389   0.4028454   0.2910323), wk =   0.0011574
        k(  207) = (   0.0575493  -0.5179441   0.2910323), wk =   0.0023148
        k(  208) = (   0.1726480  -0.4028454   0.2910323), wk =   0.0023148
        k(  209) = (   0.2877467  -0.2877467   0.2910323), wk =   0.0011574
        k(  210) = (  -0.5754935   0.1726480  -0.2667796), wk =   0.0023148
        k(  211) = (  -0.4603948   0.2877467  -0.2667796), wk =   0.0023148
        k(  212) = (  -0.3452961   0.4028454  -0.2667796), wk =   0.0023148
        k(  213) = (  -0.2301974   0.5179441  -0.2667796), wk =   0.0023148
        k(  214) = (  -1.3811843  -0.6330428  -0.2667796), wk =   0.0011574
        k(  215) = (  -1.2660856  -0.5179441  -0.2667796), wk =   0.0023148
        k(  216) = (  -1.1509869  -0.4028454  -0.2667796), wk =   0.0023148
        k(  217) = (  -1.0358882  -0.2877467  -0.2667796), wk =   0.0023148
        k(  218) = (  -0.9207895  -0.1726480  -0.2667796), wk =   0.0023148
        k(  219) = (  -0.8056908  -0.0575493  -0.2667796), wk =   0.0023148
        k(  220) = (  -0.6330428   0.0575493  -0.2425269), wk =   0.0023148
        k(  221) = (  -0.5179441   0.1726480  -0.2425269), wk =   0.0023148
        k(  222) = (  -0.4028454   0.2877467  -0.2425269), wk =   0.0023148
        k(  223) = (  -1.3236349  -0.6330428  -0.2425269), wk =   0.0023148
        k(  224) = (  -1.2085363  -0.5179441  -0.2425269), wk =   0.0023148
        k(  225) = (  -1.0934376  -0.4028454  -0.2425269), wk =   0.0023148
        k(  226) = (  -0.4603948   0.1726480  -0.2182742), wk =   0.0023148
        k(  227) = (  -0.3452961   0.2877467  -0.2182742), wk =   0.0023148
        k(  228) = (  -0.2301974   0.4028454  -0.2182742), wk =   0.0023148
        k(  229) = (   0.0000000   0.6330428  -0.2182742), wk =   0.0011574
        k(  230) = (  -1.2660856  -0.6330428  -0.2182742), wk =   0.0023148
        k(  231) = (  -1.1509869  -0.5179441  -0.2182742), wk =   0.0023148
        k(  232) = (  -1.0358882  -0.4028454  -0.2182742), wk =   0.0023148
        k(  233) = (  -0.9207895  -0.2877467  -0.2182742), wk =   0.0023148
        k(  234) = (  -0.8056908  -0.1726480  -0.2182742), wk =   0.0023148
        k(  235) = (  -0.6905921  -0.0575493  -0.2182742), wk =   0.0023148
        k(  236) = (  -0.5179441   0.0575493  -0.1940215), wk =   0.0023148
        k(  237) = (  -0.4028454   0.1726480  -0.1940215), wk =   0.0023148
        k(  238) = (  -0.2877467   0.2877467  -0.1940215), wk =   0.0011574
        k(  239) = (   0.0575493   0.6330428  -0.1940215), wk =   0.0023148
        k(  240) = (  -1.2085363  -0.6330428  -0.1940215), wk =   0.0023148
        k(  241) = (  -1.0934376  -0.5179441  -0.1940215), wk =   0.0023148
        k(  242) = (  -0.9783389  -0.4028454  -0.1940215), wk =   0.0011574
        k(  243) = (  -0.3452961   0.1726480  -0.1697688), wk =   0.0023148
        k(  244) = (  -0.2301974   0.2877467  -0.1697688), wk =   0.0023148
        k(  245) = (  -0.0000000   0.5179441  -0.1697688), wk =   0.0011574
        k(  246) = (   0.1150987   0.6330428  -0.1697688), wk =   0.0023148
        k(  247) = (  -1.1509869  -0.6330428  -0.1697688), wk =   0.0023148
        k(  248) = (  -1.0358882  -0.5179441  -0.1697688), wk =   0.0023148
        k(  249) = (  -0.9207895  -0.4028454  -0.1697688), wk =   0.0023148
        k(  250) = (  -0.8056908  -0.2877467  -0.1697688), wk =   0.0023148
        k(  251) = (  -0.6905921  -0.1726480  -0.1697688), wk =   0.0023148
        k(  252) = (  -0.5754935  -0.0575493  -0.1697688), wk =   0.0023148
        k(  253) = (  -0.4028454   0.0575493  -0.1455162), wk =   0.0023148
        k(  254) = (  -0.2877467   0.1726480  -0.1455162), wk =   0.0023148
        k(  255) = (   0.0575493   0.5179441  -0.1455162), wk =   0.0023148
        k(  256) = (   0.1726480   0.6330428  -0.1455162), wk =   0.0023148
        k(  257) = (  -1.0934376  -0.6330428  -0.1455162), wk =   0.0023148
        k(  258) = (  -0.9783389  -0.5179441  -0.1455162), wk =   0.0023148
        k(  259) = (  -0.2301974   0.1726480  -0.1212635), wk =   0.0023148
        k(  260) = (   0.0000000   0.4028454  -0.1212635), wk =   0.0011574
        k(  261) = (   0.1150987   0.5179441  -0.1212635), wk =   0.0023148
        k(  262) = (   0.2301974   0.6330428  -0.1212635), wk =   0.0023148
        k(  263) = (  -1.0358882  -0.6330428  -0.1212635), wk =   0.0023148
        k(  264) = (  -0.9207895  -0.5179441  -0.1212635), wk =   0.0023148
        k(  265) = (  -0.8056908  -0.4028454  -0.1212635), wk =   0.0023148
        k(  266) = (  -0.6905921  -0.2877467  -0.1212635), wk =   0.0023148
        k(  267) = (  -0.5754935  -0.1726480  -0.1212635), wk =   0.0023148
        k(  268) = (  -0.4603948  -0.0575493  -0.1212635), wk =   0.0023148
        k(  269) = (  -0.2877467   0.0575493  -0.0970108), wk =   0.0023148
        k(  270) = (  -0.1726480   0.1726480  -0.0970108), wk =   0.0011574
        k(  271) = (   0.0575493   0.4028454  -0.0970108), wk =   0.0023148
        k(  272) = (   0.1726480   0.5179441  -0.0970108), wk =   0.0023148
        k(  273) = (   0.2877467   0.6330428  -0.0970108), wk =   0.0023148
        k(  274) = (  -0.9783389  -0.6330428  -0.0970108), wk =   0.0023148
        k(  275) = (  -0.8632402  -0.5179441  -0.0970108), wk =   0.0011574
        k(  276) = (   0.0000000   0.2877467  -0.0727581), wk =   0.0011574
        k(  277) = (   0.1150987   0.4028454  -0.0727581), wk =   0.0023148
        k(  278) = (   0.2301974   0.5179441  -0.0727581), wk =   0.0023148
        k(  279) = (   0.3452961   0.6330428  -0.0727581), wk =   0.0023148
        k(  280) = (  -0.9207895  -0.6330428  -0.0727581), wk =   0.0023148
        k(  281) = (  -0.8056908  -0.5179441  -0.0727581), wk =   0.0023148
        k(  282) = (  -0.6905921  -0.4028454  -0.0727581), wk =   0.0023148
        k(  283) = (  -0.5754935  -0.2877467  -0.0727581), wk =   0.0023148
        k(  284) = (  -0.4603948  -0.1726480  -0.0727581), wk =   0.0023148
        k(  285) = (  -0.3452961  -0.0575493  -0.0727581), wk =   0.0023148
        k(  286) = (  -0.1726480   0.0575493  -0.0485054), wk =   0.0023148
        k(  287) = (   0.0575493   0.2877467  -0.0485054), wk =   0.0023148
        k(  288) = (   0.1726480   0.4028454  -0.0485054), wk =   0.0023148
        k(  289) = (   0.2877467   0.5179441  -0.0485054), wk =   0.0023148
        k(  290) = (   0.4028454   0.6330428  -0.0485054), wk =   0.0023148
        k(  291) = (  -0.8632402  -0.6330428  -0.0485054), wk =   0.0023148
        k(  292) = (  -0.0000000   0.1726480  -0.0242527), wk =   0.0011574
        k(  293) = (   0.1150987   0.2877467  -0.0242527), wk =   0.0023148
        k(  294) = (   0.2301974   0.4028454  -0.0242527), wk =   0.0023148
        k(  295) = (   0.3452961   0.5179441  -0.0242527), wk =   0.0023148
        k(  296) = (   0.4603948   0.6330428  -0.0242527), wk =   0.0023148
        k(  297) = (  -0.8056908  -0.6330428  -0.0242527), wk =   0.0023148
        k(  298) = (  -0.6905921  -0.5179441  -0.0242527), wk =   0.0023148
        k(  299) = (  -0.5754935  -0.4028454  -0.0242527), wk =   0.0023148
        k(  300) = (  -0.4603948  -0.2877467  -0.0242527), wk =   0.0023148
        k(  301) = (  -0.3452961  -0.1726480  -0.0242527), wk =   0.0023148
        k(  302) = (  -0.2301974  -0.0575493  -0.0242527), wk =   0.0023148
        k(  303) = (  -0.0575493   0.0575493   0.0000000), wk =   0.0005787
        k(  304) = (   0.0575493   0.1726480   0.0000000), wk =   0.0011574
        k(  305) = (   0.1726480   0.2877467   0.0000000), wk =   0.0011574
        k(  306) = (   0.2877467   0.4028454   0.0000000), wk =   0.0011574
        k(  307) = (   0.4028454   0.5179441   0.0000000), wk =   0.0011574
        k(  308) = (   0.5179441   0.6330428   0.0000000), wk =   0.0011574
        k(  309) = (  -0.7481415  -0.6330428   0.0000000), wk =   0.0005787
        k(  310) = (   0.2301974   0.2301974   0.0970108), wk =   0.0023148
        k(  311) = (   0.3452961   0.3452961   0.0970108), wk =   0.0023148
        k(  312) = (   0.4603948   0.4603948   0.0970108), wk =   0.0023148
        k(  313) = (   0.5754935   0.5754935   0.0970108), wk =   0.0023148
        k(  314) = (   0.6905921   0.6905921   0.0970108), wk =   0.0011574
        k(  315) = (  -0.0000000  -0.0000000   0.0970108), wk =   0.0005787
        k(  316) = (   0.2877467   0.2301974   0.1212635), wk =   0.0023148
        k(  317) = (   0.4028454   0.3452961   0.1212635), wk =   0.0023148
        k(  318) = (   0.5179441   0.4603948   0.1212635), wk =   0.0023148
        k(  319) = (   0.6330428   0.5754935   0.1212635), wk =   0.0023148
        k(  320) = (   0.7481415   0.6905921   0.1212635), wk =   0.0023148
        k(  321) = (  -0.5179441  -0.5754935   0.1212635), wk =   0.0023148
        k(  322) = (  -0.4028454  -0.4603948   0.1212635), wk =   0.0023148
        k(  323) = (  -0.2877467  -0.3452961   0.1212635), wk =   0.0023148
        k(  324) = (   0.0575493  -0.0000000   0.1212635), wk =   0.0011574
        k(  325) = (   0.3452961   0.2301974   0.1455162), wk =   0.0046296
        k(  326) = (   0.4603948   0.3452961   0.1455162), wk =   0.0046296
        k(  327) = (   0.5754935   0.4603948   0.1455162), wk =   0.0046296
        k(  328) = (   0.6905921   0.5754935   0.1455162), wk =   0.0046296
        k(  329) = (   0.0000000  -0.1150987   0.1455162), wk =   0.0023148
        k(  330) = (   0.4028454   0.2301974   0.1697688), wk =   0.0023148
        k(  331) = (   0.5179441   0.3452961   0.1697688), wk =   0.0023148
        k(  332) = (   0.6330428   0.4603948   0.1697688), wk =   0.0023148
        k(  333) = (   0.7481415   0.5754935   0.1697688), wk =   0.0023148
        k(  334) = (   0.8632402   0.6905921   0.1697688), wk =   0.0023148
        k(  335) = (  -0.4028454  -0.5754935   0.1697688), wk =   0.0023148
        k(  336) = (  -0.2877467  -0.4603948   0.1697688), wk =   0.0023148
        k(  337) = (   0.0575493  -0.1150987   0.1697688), wk =   0.0023148
        k(  338) = (   0.1726480  -0.0000000   0.1697688), wk =   0.0011574
        k(  339) = (   0.4603948   0.2301974   0.1940215), wk =   0.0046296
        k(  340) = (   0.5754935   0.3452961   0.1940215), wk =   0.0046296
        k(  341) = (   0.6905921   0.4603948   0.1940215), wk =   0.0046296
        k(  342) = (   0.8056908   0.5754935   0.1940215), wk =   0.0023148
        k(  343) = (   0.0000000  -0.2301974   0.1940215), wk =   0.0023148
        k(  344) = (   0.1150987  -0.1150987   0.1940215), wk =   0.0023148
        k(  345) = (   0.5179441   0.2301974   0.2182742), wk =   0.0023148
        k(  346) = (   0.6330428   0.3452961   0.2182742), wk =   0.0023148
        k(  347) = (   0.7481415   0.4603948   0.2182742), wk =   0.0023148
        k(  348) = (   0.8632402   0.5754935   0.2182742), wk =   0.0023148
        k(  349) = (   0.9783389   0.6905921   0.2182742), wk =   0.0023148
        k(  350) = (  -0.2877467  -0.5754935   0.2182742), wk =   0.0023148
        k(  351) = (   0.0575493  -0.2301974   0.2182742), wk =   0.0023148
        k(  352) = (   0.1726480  -0.1150987   0.2182742), wk =   0.0023148
        k(  353) = (   0.2877467  -0.0000000   0.2182742), wk =   0.0011574
        k(  354) = (   0.5754935   0.2301974   0.2425269), wk =   0.0046296
        k(  355) = (   0.6905921   0.3452961   0.2425269), wk =   0.0046296
        k(  356) = (   0.8056908   0.4603948   0.2425269), wk =   0.0046296
        k(  357) = (  -0.0000000  -0.3452961   0.2425269), wk =   0.0023148
        k(  358) = (   0.1150987  -0.2301974   0.2425269), wk =   0.0046296
        k(  359) = (   0.6330428   0.2301974   0.2667796), wk =   0.0023148
        k(  360) = (   0.7481415   0.3452961   0.2667796), wk =   0.0023148
        k(  361) = (   0.8632402   0.4603948   0.2667796), wk =   0.0023148
        k(  362) = (   0.9783389   0.5754935   0.2667796), wk =   0.0023148
        k(  363) = (   1.0934376   0.6905921   0.2667796), wk =   0.0023148
        k(  364) = (   0.0575493  -0.3452961   0.2667796), wk =   0.0023148
        k(  365) = (   0.1726480  -0.2301974   0.2667796), wk =   0.0023148
        k(  366) = (   0.2877467  -0.1150987   0.2667796), wk =   0.0023148
        k(  367) = (   0.4028454  -0.0000000   0.2667796), wk =   0.0011574
        k(  368) = (   0.6905921   0.2301974   0.2910323), wk =   0.0023148
        k(  369) = (   0.8056908   0.3452961   0.2910323), wk =   0.0046296
        k(  370) = (   0.9207895   0.4603948   0.2910323), wk =   0.0023148
        k(  371) = (   0.0000000  -0.4603948   0.2910323), wk =   0.0023148
        k(  372) = (   0.1150987  -0.3452961   0.2910323), wk =   0.0046296
        k(  373) = (   0.2301974  -0.2301974   0.2910323), wk =   0.0023148
        k(  374) = (   0.8632402   0.3452961   0.3152850), wk =   0.0023148
        k(  375) = (   0.9783389   0.4603948   0.3152850), wk =   0.0023148
        k(  376) = (   1.0934376   0.5754935   0.3152850), wk =   0.0023148
        k(  377) = (   0.0575493  -0.4603948   0.3152850), wk =   0.0023148
        k(  378) = (   0.1726480  -0.3452961   0.3152850), wk =   0.0023148
        k(  379) = (   0.2877467  -0.2301974   0.3152850), wk =   0.0023148
        k(  380) = (   0.4028454  -0.1150987   0.3152850), wk =   0.0023148
        k(  381) = (   0.5179441  -0.0000000   0.3152850), wk =   0.0011574
        k(  382) = (  -0.4603948   0.3452961  -0.2425269), wk =   0.0046296
        k(  383) = (  -1.3811843  -0.5754935  -0.2425269), wk =   0.0023148
        k(  384) = (  -1.2660856  -0.4603948  -0.2425269), wk =   0.0046296
        k(  385) = (  -1.1509869  -0.3452961  -0.2425269), wk =   0.0046296
        k(  386) = (  -0.4028454   0.3452961  -0.2182742), wk =   0.0023148
        k(  387) = (  -0.2877467   0.4603948  -0.2182742), wk =   0.0023148
        k(  388) = (  -1.3236349  -0.5754935  -0.2182742), wk =   0.0023148
        k(  389) = (  -1.2085363  -0.4603948  -0.2182742), wk =   0.0023148
        k(  390) = (  -1.0934376  -0.3452961  -0.2182742), wk =   0.0023148
        k(  391) = (  -0.9783389  -0.2301974  -0.2182742), wk =   0.0023148
        k(  392) = (  -0.8632402  -0.1150987  -0.2182742), wk =   0.0023148
        k(  393) = (  -0.7481415   0.0000000  -0.2182742), wk =   0.0011574
        k(  394) = (  -0.3452961   0.3452961  -0.1940215), wk =   0.0023148
        k(  395) = (   0.0000000   0.6905921  -0.1940215), wk =   0.0023148
        k(  396) = (  -1.2660856  -0.5754935  -0.1940215), wk =   0.0046296
        k(  397) = (  -1.1509869  -0.4603948  -0.1940215), wk =   0.0046296
        k(  398) = (  -1.0358882  -0.3452961  -0.1940215), wk =   0.0023148
        k(  399) = (  -0.2877467   0.3452961  -0.1697688), wk =   0.0023148
        k(  400) = (   0.0575493   0.6905921  -0.1697688), wk =   0.0023148
        k(  401) = (  -1.2085363  -0.5754935  -0.1697688), wk =   0.0023148
        k(  402) = (  -1.0934376  -0.4603948  -0.1697688), wk =   0.0023148
        k(  403) = (  -0.9783389  -0.3452961  -0.1697688), wk =   0.0023148
        k(  404) = (  -0.8632402  -0.2301974  -0.1697688), wk =   0.0023148
        k(  405) = (  -0.7481415  -0.1150987  -0.1697688), wk =   0.0023148
        k(  406) = (  -0.6330428  -0.0000000  -0.1697688), wk =   0.0011574
        k(  407) = (  -0.0000000   0.5754935  -0.1455162), wk =   0.0023148
        k(  408) = (   0.1150987   0.6905921  -0.1455162), wk =   0.0046296
        k(  409) = (  -1.1509869  -0.5754935  -0.1455162), wk =   0.0046296
        k(  410) = (  -1.0358882  -0.4603948  -0.1455162), wk =   0.0046296
        k(  411) = (   0.0575493   0.5754935  -0.1212635), wk =   0.0023148
        k(  412) = (   0.1726480   0.6905921  -0.1212635), wk =   0.0023148
        k(  413) = (  -1.0934376  -0.5754935  -0.1212635), wk =   0.0023148
        k(  414) = (  -0.9783389  -0.4603948  -0.1212635), wk =   0.0023148
        k(  415) = (  -0.8632402  -0.3452961  -0.1212635), wk =   0.0023148
        k(  416) = (  -0.7481415  -0.2301974  -0.1212635), wk =   0.0023148
        k(  417) = (  -0.6330428  -0.1150987  -0.1212635), wk =   0.0023148
        k(  418) = (  -0.5179441  -0.0000000  -0.1212635), wk =   0.0011574
        k(  419) = (   0.0000000   0.4603948  -0.0970108), wk =   0.0023148
        k(  420) = (   0.1150987   0.5754935  -0.0970108), wk =   0.0046296
        k(  421) = (   0.2301974   0.6905921  -0.0970108), wk =   0.0046296
        k(  422) = (  -1.0358882  -0.5754935  -0.0970108), wk =   0.0046296
        k(  423) = (  -0.9207895  -0.4603948  -0.0970108), wk =   0.0023148
        k(  424) = (   0.0575493   0.4603948  -0.0727581), wk =   0.0023148
        k(  425) = (   0.1726480   0.5754935  -0.0727581), wk =   0.0023148
        k(  426) = (   0.2877467   0.6905921  -0.0727581), wk =   0.0023148
        k(  427) = (  -0.9783389  -0.5754935  -0.0727581), wk =   0.0023148
        k(  428) = (  -0.8632402  -0.4603948  -0.0727581), wk =   0.0023148
        k(  429) = (  -0.7481415  -0.3452961  -0.0727581), wk =   0.0023148
        k(  430) = (  -0.6330428  -0.2301974  -0.0727581), wk =   0.0023148
        k(  431) = (  -0.5179441  -0.1150987  -0.0727581), wk =   0.0023148
        k(  432) = (  -0.4028454  -0.0000000  -0.0727581), wk =   0.0011574
        k(  433) = (   0.0000000   0.3452961  -0.0485054), wk =   0.0023148
        k(  434) = (   0.1150987   0.4603948  -0.0485054), wk =   0.0046296
        k(  435) = (   0.2301974   0.5754935  -0.0485054), wk =   0.0046296
        k(  436) = (   0.3452961   0.6905921  -0.0485054), wk =   0.0046296
        k(  437) = (  -0.9207895  -0.5754935  -0.0485054), wk =   0.0046296
        k(  438) = (   0.0575493   0.3452961  -0.0242527), wk =   0.0023148
        k(  439) = (   0.1726480   0.4603948  -0.0242527), wk =   0.0023148
        k(  440) = (   0.2877467   0.5754935  -0.0242527), wk =   0.0023148
        k(  441) = (   0.4028454   0.6905921  -0.0242527), wk =   0.0023148
        k(  442) = (  -0.8632402  -0.5754935  -0.0242527), wk =   0.0023148
        k(  443) = (  -0.7481415  -0.4603948  -0.0242527), wk =   0.0023148
        k(  444) = (  -0.6330428  -0.3452961  -0.0242527), wk =   0.0023148
        k(  445) = (  -0.5179441  -0.2301974  -0.0242527), wk =   0.0023148
        k(  446) = (  -0.4028454  -0.1150987  -0.0242527), wk =   0.0023148
        k(  447) = (  -0.2877467  -0.0000000  -0.0242527), wk =   0.0011574
        k(  448) = (  -0.0000000   0.2301974  -0.0000000), wk =   0.0011574
        k(  449) = (   0.1150987   0.3452961  -0.0000000), wk =   0.0023148
        k(  450) = (   0.2301974   0.4603948  -0.0000000), wk =   0.0023148
        k(  451) = (   0.3452961   0.5754935  -0.0000000), wk =   0.0023148
        k(  452) = (   0.4603948   0.6905921  -0.0000000), wk =   0.0023148
        k(  453) = (  -0.8056908  -0.5754935  -0.0000000), wk =   0.0011574
        k(  454) = (   0.1726480   0.1726480   0.1455162), wk =   0.0011574
        k(  455) = (   0.2877467   0.2877467   0.1455162), wk =   0.0011574
        k(  456) = (   0.4028454   0.4028454   0.1455162), wk =   0.0011574
        k(  457) = (   0.5179441   0.5179441   0.1455162), wk =   0.0011574
        k(  458) = (   0.6330428   0.6330428   0.1455162), wk =   0.0011574
        k(  459) = (  -0.0575493  -0.0575493   0.1455162), wk =   0.0011574
        k(  460) = (   0.4603948   0.4028454   0.1697688), wk =   0.0023148
        k(  461) = (   0.5754935   0.5179441   0.1697688), wk =   0.0023148
        k(  462) = (   0.6905921   0.6330428   0.1697688), wk =   0.0023148
        k(  463) = (   0.8056908   0.7481415   0.1697688), wk =   0.0023148
        k(  464) = (  -0.4603948  -0.5179441   0.1697688), wk =   0.0023148
        k(  465) = (  -0.3452961  -0.4028454   0.1697688), wk =   0.0023148
        k(  466) = (   0.0000000  -0.0575493   0.1697688), wk =   0.0011574
        k(  467) = (   0.2877467   0.1726480   0.1940215), wk =   0.0023148
        k(  468) = (   0.4028454   0.2877467   0.1940215), wk =   0.0023148
        k(  469) = (   0.5179441   0.4028454   0.1940215), wk =   0.0023148
        k(  470) = (   0.6330428   0.5179441   0.1940215), wk =   0.0023148
        k(  471) = (   0.7481415   0.6330428   0.1940215), wk =   0.0011574
        k(  472) = (  -0.0575493  -0.1726480   0.1940215), wk =   0.0023148
        k(  473) = (   0.0575493  -0.0575493   0.1940215), wk =   0.0011574
        k(  474) = (   0.5754935   0.4028454   0.2182742), wk =   0.0023148
        k(  475) = (   0.6905921   0.5179441   0.2182742), wk =   0.0023148
        k(  476) = (   0.8056908   0.6330428   0.2182742), wk =   0.0023148
        k(  477) = (   0.9207895   0.7481415   0.2182742), wk =   0.0023148
        k(  478) = (  -0.3452961  -0.5179441   0.2182742), wk =   0.0023148
        k(  479) = (   0.0000000  -0.1726480   0.2182742), wk =   0.0011574
        k(  480) = (   0.1150987  -0.0575493   0.2182742), wk =   0.0023148
        k(  481) = (   0.4028454   0.1726480   0.2425269), wk =   0.0023148
        k(  482) = (   0.5179441   0.2877467   0.2425269), wk =   0.0023148
        k(  483) = (   0.6330428   0.4028454   0.2425269), wk =   0.0023148
        k(  484) = (   0.7481415   0.5179441   0.2425269), wk =   0.0023148
        k(  485) = (  -0.0575493  -0.2877467   0.2425269), wk =   0.0023148
        k(  486) = (   0.0575493  -0.1726480   0.2425269), wk =   0.0023148
        k(  487) = (   0.6905921   0.4028454   0.2667796), wk =   0.0023148
        k(  488) = (   0.8056908   0.5179441   0.2667796), wk =   0.0023148
        k(  489) = (   0.9207895   0.6330428   0.2667796), wk =   0.0023148
        k(  490) = (   1.0358882   0.7481415   0.2667796), wk =   0.0023148
        k(  491) = (  -0.0000000  -0.2877467   0.2667796), wk =   0.0011574
        k(  492) = (   0.1150987  -0.1726480   0.2667796), wk =   0.0023148
        k(  493) = (   0.2301974  -0.0575493   0.2667796), wk =   0.0023148
        k(  494) = (   0.5179441   0.1726480   0.2910323), wk =   0.0023148
        k(  495) = (   0.6330428   0.2877467   0.2910323), wk =   0.0023148
        k(  496) = (   0.7481415   0.4028454   0.2910323), wk =   0.0023148
        k(  497) = (   0.8632402   0.5179441   0.2910323), wk =   0.0011574
        k(  498) = (  -0.0575493  -0.4028454   0.2910323), wk =   0.0023148
        k(  499) = (   0.0575493  -0.2877467   0.2910323), wk =   0.0023148
        k(  500) = (   0.1726480  -0.1726480   0.2910323), wk =   0.0011574
        k(  501) = (   0.8056908   0.4028454   0.3152850), wk =   0.0023148
        k(  502) = (   0.9207895   0.5179441   0.3152850), wk =   0.0023148
        k(  503) = (   0.0000000  -0.4028454   0.3152850), wk =   0.0011574
        k(  504) = (   0.1150987  -0.2877467   0.3152850), wk =   0.0023148
        k(  505) = (   0.2301974  -0.1726480   0.3152850), wk =   0.0023148
        k(  506) = (   0.3452961  -0.0575493   0.3152850), wk =   0.0023148
        k(  507) = (   0.6330428   0.1726480   0.3395377), wk =   0.0023148
        k(  508) = (   0.7481415   0.2877467   0.3395377), wk =   0.0023148
        k(  509) = (   0.8632402   0.4028454   0.3395377), wk =   0.0023148
        k(  510) = (  -0.0575493  -0.5179441   0.3395377), wk =   0.0023148
        k(  511) = (   0.0575493  -0.4028454   0.3395377), wk =   0.0023148
        k(  512) = (   0.1726480  -0.2877467   0.3395377), wk =   0.0023148
        k(  513) = (  -0.4603948   0.4028454  -0.2182742), wk =   0.0023148
        k(  514) = (  -1.3811843  -0.5179441  -0.2182742), wk =   0.0011574
        k(  515) = (  -1.2660856  -0.4028454  -0.2182742), wk =   0.0023148
        k(  516) = (  -1.1509869  -0.2877467  -0.2182742), wk =   0.0023148
        k(  517) = (  -1.0358882  -0.1726480  -0.2182742), wk =   0.0023148
        k(  518) = (  -0.9207895  -0.0575493  -0.2182742), wk =   0.0023148
        k(  519) = (  -0.6330428   0.1726480  -0.1940215), wk =   0.0023148
        k(  520) = (  -0.5179441   0.2877467  -0.1940215), wk =   0.0023148
        k(  521) = (  -0.4028454   0.4028454  -0.1940215), wk =   0.0011574
        k(  522) = (  -0.0575493   0.7481415  -0.1940215), wk =   0.0023148
        k(  523) = (  -1.3236349  -0.5179441  -0.1940215), wk =   0.0023148
        k(  524) = (  -1.2085363  -0.4028454  -0.1940215), wk =   0.0023148
        k(  525) = (  -1.0934376  -0.2877467  -0.1940215), wk =   0.0011574
        k(  526) = (   0.0000000   0.7481415  -0.1697688), wk =   0.0011574
        k(  527) = (  -1.2660856  -0.5179441  -0.1697688), wk =   0.0023148
        k(  528) = (  -1.1509869  -0.4028454  -0.1697688), wk =   0.0023148
        k(  529) = (  -1.0358882  -0.2877467  -0.1697688), wk =   0.0023148
        k(  530) = (  -0.9207895  -0.1726480  -0.1697688), wk =   0.0023148
        k(  531) = (  -0.8056908  -0.0575493  -0.1697688), wk =   0.0023148
        k(  532) = (  -0.5179441   0.1726480  -0.1455162), wk =   0.0023148
        k(  533) = (  -0.4028454   0.2877467  -0.1455162), wk =   0.0023148
        k(  534) = (  -0.0575493   0.6330428  -0.1455162), wk =   0.0023148
        k(  535) = (   0.0575493   0.7481415  -0.1455162), wk =   0.0023148
        k(  536) = (  -1.2085363  -0.5179441  -0.1455162), wk =   0.0023148
        k(  537) = (  -1.0934376  -0.4028454  -0.1455162), wk =   0.0023148
        k(  538) = (  -0.0000000   0.6330428  -0.1212635), wk =   0.0011574
        k(  539) = (   0.1150987   0.7481415  -0.1212635), wk =   0.0023148
        k(  540) = (  -1.1509869  -0.5179441  -0.1212635), wk =   0.0023148
        k(  541) = (  -1.0358882  -0.4028454  -0.1212635), wk =   0.0023148
        k(  542) = (  -0.9207895  -0.2877467  -0.1212635), wk =   0.0023148
        k(  543) = (  -0.8056908  -0.1726480  -0.1212635), wk =   0.0023148
        k(  544) = (  -0.6905921  -0.0575493  -0.1212635), wk =   0.0023148
        k(  545) = (  -0.4028454   0.1726480  -0.0970108), wk =   0.0023148
        k(  546) = (  -0.2877467   0.2877467  -0.0970108), wk =   0.0011574
        k(  547) = (  -0.0575493   0.5179441  -0.0970108), wk =   0.0023148
        k(  548) = (   0.0575493   0.6330428  -0.0970108), wk =   0.0023148
        k(  549) = (   0.1726480   0.7481415  -0.0970108), wk =   0.0023148
        k(  550) = (  -1.0934376  -0.5179441  -0.0970108), wk =   0.0023148
        k(  551) = (  -0.9783389  -0.4028454  -0.0970108), wk =   0.0011574
        k(  552) = (   0.0000000   0.5179441  -0.0727581), wk =   0.0011574
        k(  553) = (   0.1150987   0.6330428  -0.0727581), wk =   0.0023148
        k(  554) = (   0.2301974   0.7481415  -0.0727581), wk =   0.0023148
        k(  555) = (  -1.0358882  -0.5179441  -0.0727581), wk =   0.0023148
        k(  556) = (  -0.9207895  -0.4028454  -0.0727581), wk =   0.0023148
        k(  557) = (  -0.8056908  -0.2877467  -0.0727581), wk =   0.0023148
        k(  558) = (  -0.6905921  -0.1726480  -0.0727581), wk =   0.0023148
        k(  559) = (  -0.5754935  -0.0575493  -0.0727581), wk =   0.0023148
        k(  560) = (  -0.2877467   0.1726480  -0.0485054), wk =   0.0023148
        k(  561) = (  -0.0575493   0.4028454  -0.0485054), wk =   0.0023148
        k(  562) = (   0.0575493   0.5179441  -0.0485054), wk =   0.0023148
        k(  563) = (   0.1726480   0.6330428  -0.0485054), wk =   0.0023148
        k(  564) = (   0.2877467   0.7481415  -0.0485054), wk =   0.0023148
        k(  565) = (  -0.9783389  -0.5179441  -0.0485054), wk =   0.0023148
        k(  566) = (   0.0000000   0.4028454  -0.0242527), wk =   0.0011574
        k(  567) = (   0.1150987   0.5179441  -0.0242527), wk =   0.0023148
        k(  568) = (   0.2301974   0.6330428  -0.0242527), wk =   0.0023148
        k(  569) = (   0.3452961   0.7481415  -0.0242527), wk =   0.0023148
        k(  570) = (  -0.9207895  -0.5179441  -0.0242527), wk =   0.0023148
        k(  571) = (  -0.8056908  -0.4028454  -0.0242527), wk =   0.0023148
        k(  572) = (  -0.6905921  -0.2877467  -0.0242527), wk =   0.0023148
        k(  573) = (  -0.5754935  -0.1726480  -0.0242527), wk =   0.0023148
        k(  574) = (  -0.4603948  -0.0575493  -0.0242527), wk =   0.0023148
        k(  575) = (  -0.1726480   0.1726480   0.0000000), wk =   0.0005787
        k(  576) = (  -0.0575493   0.2877467   0.0000000), wk =   0.0011574
        k(  577) = (   0.0575493   0.4028454   0.0000000), wk =   0.0011574
        k(  578) = (   0.1726480   0.5179441   0.0000000), wk =   0.0011574
        k(  579) = (   0.2877467   0.6330428   0.0000000), wk =   0.0011574
        k(  580) = (   0.4028454   0.7481415   0.0000000), wk =   0.0011574
        k(  581) = (  -0.8632402  -0.5179441   0.0000000), wk =   0.0005787
        k(  582) = (   0.4603948   0.4603948   0.1940215), wk =   0.0023148
        k(  583) = (   0.5754935   0.5754935   0.1940215), wk =   0.0023148
        k(  584) = (   0.6905921   0.6905921   0.1940215), wk =   0.0011574
        k(  585) = (   0.0000000   0.0000000   0.1940215), wk =   0.0005787
        k(  586) = (   0.5179441   0.4603948   0.2182742), wk =   0.0023148
        k(  587) = (   0.6330428   0.5754935   0.2182742), wk =   0.0023148
        k(  588) = (   0.7481415   0.6905921   0.2182742), wk =   0.0023148
        k(  589) = (   0.8632402   0.8056908   0.2182742), wk =   0.0023148
        k(  590) = (   0.0575493   0.0000000   0.2182742), wk =   0.0011574
        k(  591) = (   0.5754935   0.4603948   0.2425269), wk =   0.0046296
        k(  592) = (   0.6905921   0.5754935   0.2425269), wk =   0.0046296
        k(  593) = (   0.0000000  -0.1150987   0.2425269), wk =   0.0023148
        k(  594) = (   0.6330428   0.4603948   0.2667796), wk =   0.0023148
        k(  595) = (   0.7481415   0.5754935   0.2667796), wk =   0.0023148
        k(  596) = (   0.8632402   0.6905921   0.2667796), wk =   0.0023148
        k(  597) = (   0.0575493  -0.1150987   0.2667796), wk =   0.0023148
        k(  598) = (   0.1726480   0.0000000   0.2667796), wk =   0.0011574
        k(  599) = (   0.6905921   0.4603948   0.2910323), wk =   0.0023148
        k(  600) = (   0.8056908   0.5754935   0.2910323), wk =   0.0023148
        k(  601) = (  -0.0000000  -0.2301974   0.2910323), wk =   0.0023148
        k(  602) = (   0.1150987  -0.1150987   0.2910323), wk =   0.0023148
        k(  603) = (   0.8632402   0.5754935   0.3152850), wk =   0.0023148
        k(  604) = (   0.0575493  -0.2301974   0.3152850), wk =   0.0023148
        k(  605) = (   0.1726480  -0.1150987   0.3152850), wk =   0.0023148
        k(  606) = (   0.2877467   0.0000000   0.3152850), wk =   0.0011574
        k(  607) = (   0.0000000  -0.3452961   0.3395377), wk =   0.0023148
        k(  608) = (   0.1150987  -0.2301974   0.3395377), wk =   0.0046296
        k(  609) = (   0.0575493  -0.3452961   0.3637904), wk =   0.0023148
        k(  610) = (   0.1726480  -0.2301974   0.3637904), wk =   0.0023148
        k(  611) = (   0.2877467  -0.1150987   0.3637904), wk =   0.0023148
        k(  612) = (   0.4028454   0.0000000   0.3637904), wk =   0.0011574
        k(  613) = (  -1.3811843  -0.4603948  -0.1940215), wk =   0.0023148
        k(  614) = (  -1.2660856  -0.3452961  -0.1940215), wk =   0.0046296
        k(  615) = (  -1.1509869  -0.2301974  -0.1940215), wk =   0.0023148
        k(  616) = (  -1.3236349  -0.4603948  -0.1697688), wk =   0.0023148
        k(  617) = (  -1.2085363  -0.3452961  -0.1697688), wk =   0.0023148
        k(  618) = (  -1.0934376  -0.2301974  -0.1697688), wk =   0.0023148
        k(  619) = (  -0.9783389  -0.1150987  -0.1697688), wk =   0.0023148
        k(  620) = (  -0.8632402   0.0000000  -0.1697688), wk =   0.0011574
        k(  621) = (   0.0000000   0.8056908  -0.1455162), wk =   0.0023148
        k(  622) = (  -1.2660856  -0.4603948  -0.1455162), wk =   0.0046296
        k(  623) = (  -1.1509869  -0.3452961  -0.1455162), wk =   0.0046296
        k(  624) = (   0.0575493   0.8056908  -0.1212635), wk =   0.0023148
        k(  625) = (  -1.2085363  -0.4603948  -0.1212635), wk =   0.0023148
        k(  626) = (  -1.0934376  -0.3452961  -0.1212635), wk =   0.0023148
        k(  627) = (  -0.9783389  -0.2301974  -0.1212635), wk =   0.0023148
        k(  628) = (  -0.8632402  -0.1150987  -0.1212635), wk =   0.0023148
        k(  629) = (  -0.7481415   0.0000000  -0.1212635), wk =   0.0011574
        k(  630) = (  -0.0000000   0.6905921  -0.0970108), wk =   0.0023148
        k(  631) = (   0.1150987   0.8056908  -0.0970108), wk =   0.0046296
        k(  632) = (  -1.1509869  -0.4603948  -0.0970108), wk =   0.0046296
        k(  633) = (  -1.0358882  -0.3452961  -0.0970108), wk =   0.0023148
        k(  634) = (   0.0575493   0.6905921  -0.0727581), wk =   0.0023148
        k(  635) = (   0.1726480   0.8056908  -0.0727581), wk =   0.0023148
        k(  636) = (  -1.0934376  -0.4603948  -0.0727581), wk =   0.0023148
        k(  637) = (  -0.9783389  -0.3452961  -0.0727581), wk =   0.0023148
        k(  638) = (  -0.8632402  -0.2301974  -0.0727581), wk =   0.0023148
        k(  639) = (  -0.7481415  -0.1150987  -0.0727581), wk =   0.0023148
        k(  640) = (  -0.6330428   0.0000000  -0.0727581), wk =   0.0011574
        k(  641) = (   0.0000000   0.5754935  -0.0485054), wk =   0.0023148
        k(  642) = (   0.1150987   0.6905921  -0.0485054), wk =   0.0046296
        k(  643) = (   0.2301974   0.8056908  -0.0485054), wk =   0.0046296
        k(  644) = (  -1.0358882  -0.4603948  -0.0485054), wk =   0.0046296
        k(  645) = (   0.0575493   0.5754935  -0.0242527), wk =   0.0023148
        k(  646) = (   0.1726480   0.6905921  -0.0242527), wk =   0.0023148
        k(  647) = (   0.2877467   0.8056908  -0.0242527), wk =   0.0023148
        k(  648) = (  -0.9783389  -0.4603948  -0.0242527), wk =   0.0023148
        k(  649) = (  -0.8632402  -0.3452961  -0.0242527), wk =   0.0023148
        k(  650) = (  -0.7481415  -0.2301974  -0.0242527), wk =   0.0023148
        k(  651) = (  -0.6330428  -0.1150987  -0.0242527), wk =   0.0023148
        k(  652) = (  -0.5179441   0.0000000  -0.0242527), wk =   0.0011574
        k(  653) = (   0.0000000   0.4603948   0.0000000), wk =   0.0011574
        k(  654) = (   0.1150987   0.5754935   0.0000000), wk =   0.0023148
        k(  655) = (   0.2301974   0.6905921   0.0000000), wk =   0.0023148
        k(  656) = (   0.3452961   0.8056908   0.0000000), wk =   0.0023148
        k(  657) = (  -0.9207895  -0.4603948   0.0000000), wk =   0.0011574
        k(  658) = (   0.2877467   0.2877467   0.2425269), wk =   0.0011574
        k(  659) = (   0.4028454   0.4028454   0.2425269), wk =   0.0011574
        k(  660) = (   0.5179441   0.5179441   0.2425269), wk =   0.0011574
        k(  661) = (   0.6330428   0.6330428   0.2425269), wk =   0.0011574
        k(  662) = (  -0.1726480  -0.1726480   0.2425269), wk =   0.0011574
        k(  663) = (  -0.0575493  -0.0575493   0.2425269), wk =   0.0011574
        k(  664) = (   0.6905921   0.6330428   0.2667796), wk =   0.0023148
        k(  665) = (   0.8056908   0.7481415   0.2667796), wk =   0.0023148
        k(  666) = (   0.0000000  -0.0575493   0.2667796), wk =   0.0011574
        k(  667) = (   0.4028454   0.2877467   0.2910323), wk =   0.0023148
        k(  668) = (   0.5179441   0.4028454   0.2910323), wk =   0.0023148
        k(  669) = (   0.6330428   0.5179441   0.2910323), wk =   0.0023148
        k(  670) = (   0.7481415   0.6330428   0.2910323), wk =   0.0011574
        k(  671) = (  -0.1726480  -0.2877467   0.2910323), wk =   0.0023148
        k(  672) = (  -0.0575493  -0.1726480   0.2910323), wk =   0.0023148
        k(  673) = (   0.0575493  -0.0575493   0.2910323), wk =   0.0011574
        k(  674) = (   0.0000000  -0.1726480   0.3152850), wk =   0.0011574
        k(  675) = (   0.1150987  -0.0575493   0.3152850), wk =   0.0023148
        k(  676) = (   0.5179441   0.2877467   0.3395377), wk =   0.0023148
        k(  677) = (   0.6330428   0.4028454   0.3395377), wk =   0.0023148
        k(  678) = (   0.7481415   0.5179441   0.3395377), wk =   0.0023148
        k(  679) = (  -0.1726480  -0.4028454   0.3395377), wk =   0.0023148
        k(  680) = (  -0.0575493  -0.2877467   0.3395377), wk =   0.0023148
        k(  681) = (   0.0575493  -0.1726480   0.3395377), wk =   0.0023148
        k(  682) = (   0.0000000  -0.2877467   0.3637904), wk =   0.0011574
        k(  683) = (   0.1150987  -0.1726480   0.3637904), wk =   0.0023148
        k(  684) = (   0.2301974  -0.0575493   0.3637904), wk =   0.0023148
        k(  685) = (   0.6330428   0.2877467   0.3880431), wk =   0.0023148
        k(  686) = (   0.7481415   0.4028454   0.3880431), wk =   0.0023148
        k(  687) = (   0.8632402   0.5179441   0.3880431), wk =   0.0011574
        k(  688) = (   1.2085363   0.8632402   0.3880431), wk =   0.0023148
        k(  689) = (  -0.0575493  -0.4028454   0.3880431), wk =   0.0023148
        k(  690) = (   0.0575493  -0.2877467   0.3880431), wk =   0.0023148
        k(  691) = (   0.1726480  -0.1726480   0.3880431), wk =   0.0011574
        k(  692) = (  -1.3811843  -0.4028454  -0.1697688), wk =   0.0011574
        k(  693) = (  -1.2660856  -0.2877467  -0.1697688), wk =   0.0023148
        k(  694) = (  -1.1509869  -0.1726480  -0.1697688), wk =   0.0023148
        k(  695) = (  -1.0358882  -0.0575493  -0.1697688), wk =   0.0023148
        k(  696) = (  -0.6330428   0.2877467  -0.1455162), wk =   0.0023148
        k(  697) = (  -0.5179441   0.4028454  -0.1455162), wk =   0.0023148
        k(  698) = (  -0.1726480   0.7481415  -0.1455162), wk =   0.0023148
        k(  699) = (  -0.0575493   0.8632402  -0.1455162), wk =   0.0023148
        k(  700) = (  -1.3236349  -0.4028454  -0.1455162), wk =   0.0023148
        k(  701) = (  -1.2085363  -0.2877467  -0.1455162), wk =   0.0023148
        k(  702) = (   0.0000000   0.8632402  -0.1212635), wk =   0.0011574
        k(  703) = (  -1.2660856  -0.4028454  -0.1212635), wk =   0.0023148
        k(  704) = (  -1.1509869  -0.2877467  -0.1212635), wk =   0.0023148
        k(  705) = (  -1.0358882  -0.1726480  -0.1212635), wk =   0.0023148
        k(  706) = (  -0.9207895  -0.0575493  -0.1212635), wk =   0.0023148
        k(  707) = (  -0.5179441   0.2877467  -0.0970108), wk =   0.0023148
        k(  708) = (  -0.4028454   0.4028454  -0.0970108), wk =   0.0011574
        k(  709) = (  -0.1726480   0.6330428  -0.0970108), wk =   0.0023148
        k(  710) = (  -0.0575493   0.7481415  -0.0970108), wk =   0.0023148
        k(  711) = (   0.0575493   0.8632402  -0.0970108), wk =   0.0023148
        k(  712) = (  -1.2085363  -0.4028454  -0.0970108), wk =   0.0023148
        k(  713) = (  -1.0934376  -0.2877467  -0.0970108), wk =   0.0011574
        k(  714) = (   0.0000000   0.7481415  -0.0727581), wk =   0.0011574
        k(  715) = (   0.1150987   0.8632402  -0.0727581), wk =   0.0023148
        k(  716) = (  -1.1509869  -0.4028454  -0.0727581), wk =   0.0023148
        k(  717) = (  -1.0358882  -0.2877467  -0.0727581), wk =   0.0023148
        k(  718) = (  -0.9207895  -0.1726480  -0.0727581), wk =   0.0023148
        k(  719) = (  -0.8056908  -0.0575493  -0.0727581), wk =   0.0023148
        k(  720) = (  -0.4028454   0.2877467  -0.0485054), wk =   0.0023148
        k(  721) = (  -0.1726480   0.5179441  -0.0485054), wk =   0.0023148
        k(  722) = (  -0.0575493   0.6330428  -0.0485054), wk =   0.0023148
        k(  723) = (   0.0575493   0.7481415  -0.0485054), wk =   0.0023148
        k(  724) = (   0.1726480   0.8632402  -0.0485054), wk =   0.0023148
        k(  725) = (  -1.0934376  -0.4028454  -0.0485054), wk =   0.0023148
        k(  726) = (   0.0000000   0.6330428  -0.0242527), wk =   0.0011574
        k(  727) = (   0.1150987   0.7481415  -0.0242527), wk =   0.0023148
        k(  728) = (   0.2301974   0.8632402  -0.0242527), wk =   0.0023148
        k(  729) = (  -1.0358882  -0.4028454  -0.0242527), wk =   0.0023148
        k(  730) = (  -0.9207895  -0.2877467  -0.0242527), wk =   0.0023148
        k(  731) = (  -0.8056908  -0.1726480  -0.0242527), wk =   0.0023148
        k(  732) = (  -0.6905921  -0.0575493  -0.0242527), wk =   0.0023148
        k(  733) = (  -0.2877467   0.2877467   0.0000000), wk =   0.0005787
        k(  734) = (  -0.1726480   0.4028454   0.0000000), wk =   0.0011574
        k(  735) = (  -0.0575493   0.5179441   0.0000000), wk =   0.0011574
        k(  736) = (   0.0575493   0.6330428   0.0000000), wk =   0.0011574
        k(  737) = (   0.1726480   0.7481415   0.0000000), wk =   0.0011574
        k(  738) = (   0.2877467   0.8632402   0.0000000), wk =   0.0011574
        k(  739) = (  -0.9783389  -0.4028454   0.0000000), wk =   0.0005787
        k(  740) = (   0.6905921   0.6905921   0.2910323), wk =   0.0005787
        k(  741) = (   0.0000000   0.0000000   0.2910323), wk =   0.0005787
        k(  742) = (   0.0575493   0.0000000   0.3152850), wk =   0.0011574
        k(  743) = (   0.0000000  -0.1150987   0.3395377), wk =   0.0023148
        k(  744) = (   0.0575493  -0.1150987   0.3637904), wk =   0.0023148
        k(  745) = (   0.1726480   0.0000000   0.3637904), wk =   0.0011574
        k(  746) = (   0.0000000  -0.2301974   0.3880431), wk =   0.0023148
        k(  747) = (   0.1150987  -0.1150987   0.3880431), wk =   0.0023148
        k(  748) = (   0.0575493  -0.2301974   0.4122958), wk =   0.0023148
        k(  749) = (   0.1726480  -0.1150987   0.4122958), wk =   0.0023148
        k(  750) = (   0.2877467   0.0000000   0.4122958), wk =   0.0011574
        k(  751) = (  -1.3811843  -0.3452961  -0.1455162), wk =   0.0023148
        k(  752) = (  -1.2660856  -0.2301974  -0.1455162), wk =   0.0046296
        k(  753) = (  -1.3236349  -0.3452961  -0.1212635), wk =   0.0023148
        k(  754) = (  -1.2085363  -0.2301974  -0.1212635), wk =   0.0023148
        k(  755) = (  -1.0934376  -0.1150987  -0.1212635), wk =   0.0023148
        k(  756) = (  -0.9783389   0.0000000  -0.1212635), wk =   0.0011574
        k(  757) = (   0.0000000   0.9207895  -0.0970108), wk =   0.0023148
        k(  758) = (  -1.2660856  -0.3452961  -0.0970108), wk =   0.0046296
        k(  759) = (  -1.1509869  -0.2301974  -0.0970108), wk =   0.0023148
        k(  760) = (   0.0575493   0.9207895  -0.0727581), wk =   0.0023148
        k(  761) = (  -1.2085363  -0.3452961  -0.0727581), wk =   0.0023148
        k(  762) = (  -1.0934376  -0.2301974  -0.0727581), wk =   0.0023148
        k(  763) = (  -0.9783389  -0.1150987  -0.0727581), wk =   0.0023148
        k(  764) = (  -0.8632402   0.0000000  -0.0727581), wk =   0.0011574
        k(  765) = (   0.0000000   0.8056908  -0.0485054), wk =   0.0023148
        k(  766) = (   0.1150987   0.9207895  -0.0485054), wk =   0.0046296
        k(  767) = (  -1.1509869  -0.3452961  -0.0485054), wk =   0.0046296
        k(  768) = (   0.0575493   0.8056908  -0.0242527), wk =   0.0023148
        k(  769) = (   0.1726480   0.9207895  -0.0242527), wk =   0.0023148
        k(  770) = (  -1.0934376  -0.3452961  -0.0242527), wk =   0.0023148
        k(  771) = (  -0.9783389  -0.2301974  -0.0242527), wk =   0.0023148
        k(  772) = (  -0.8632402  -0.1150987  -0.0242527), wk =   0.0023148
        k(  773) = (  -0.7481415   0.0000000  -0.0242527), wk =   0.0011574
        k(  774) = (   0.0000000   0.6905921   0.0000000), wk =   0.0011574
        k(  775) = (   0.1150987   0.8056908   0.0000000), wk =   0.0023148
        k(  776) = (   0.2301974   0.9207895   0.0000000), wk =   0.0023148
        k(  777) = (  -1.0358882  -0.3452961   0.0000000), wk =   0.0011574
        k(  778) = (   0.4028454   0.4028454   0.3395377), wk =   0.0011574
        k(  779) = (   0.5179441   0.5179441   0.3395377), wk =   0.0011574
        k(  780) = (   0.6330428   0.6330428   0.3395377), wk =   0.0011574
        k(  781) = (  -0.2877467  -0.2877467   0.3395377), wk =   0.0011574
        k(  782) = (  -0.1726480  -0.1726480   0.3395377), wk =   0.0011574
        k(  783) = (  -0.0575493  -0.0575493   0.3395377), wk =   0.0011574
        k(  784) = (  -0.0000000  -0.0575493   0.3637904), wk =   0.0011574
        k(  785) = (   0.5179441   0.4028454   0.3880431), wk =   0.0023148
        k(  786) = (   0.6330428   0.5179441   0.3880431), wk =   0.0023148
        k(  787) = (   0.7481415   0.6330428   0.3880431), wk =   0.0011574
        k(  788) = (   1.0934376   0.9783389   0.3880431), wk =   0.0023148
        k(  789) = (  -0.1726480  -0.2877467   0.3880431), wk =   0.0023148
        k(  790) = (  -0.0575493  -0.1726480   0.3880431), wk =   0.0023148
        k(  791) = (   0.0575493  -0.0575493   0.3880431), wk =   0.0011574
        k(  792) = (   0.0000000  -0.1726480   0.4122958), wk =   0.0011574
        k(  793) = (   0.1150987  -0.0575493   0.4122958), wk =   0.0023148
        k(  794) = (   0.6330428   0.4028454   0.4365485), wk =   0.0023148
        k(  795) = (   0.7481415   0.5179441   0.4365485), wk =   0.0023148
        k(  796) = (   1.0934376   0.8632402   0.4365485), wk =   0.0023148
        k(  797) = (   1.2085363   0.9783389   0.4365485), wk =   0.0023148
        k(  798) = (  -0.0575493  -0.2877467   0.4365485), wk =   0.0023148
        k(  799) = (   0.0575493  -0.1726480   0.4365485), wk =   0.0023148
        k(  800) = (  -1.3811843  -0.2877467  -0.1212635), wk =   0.0011574
        k(  801) = (  -1.2660856  -0.1726480  -0.1212635), wk =   0.0023148
        k(  802) = (  -1.1509869  -0.0575493  -0.1212635), wk =   0.0023148
        k(  803) = (  -0.6330428   0.4028454  -0.0970108), wk =   0.0023148
        k(  804) = (  -0.5179441   0.5179441  -0.0970108), wk =   0.0011574
        k(  805) = (  -0.2877467   0.7481415  -0.0970108), wk =   0.0023148
        k(  806) = (  -0.1726480   0.8632402  -0.0970108), wk =   0.0023148
        k(  807) = (  -0.0575493   0.9783389  -0.0970108), wk =   0.0023148
        k(  808) = (  -1.3236349  -0.2877467  -0.0970108), wk =   0.0023148
        k(  809) = (  -1.2085363  -0.1726480  -0.0970108), wk =   0.0011574
        k(  810) = (   0.0000000   0.9783389  -0.0727581), wk =   0.0011574
        k(  811) = (  -1.2660856  -0.2877467  -0.0727581), wk =   0.0023148
        k(  812) = (  -1.1509869  -0.1726480  -0.0727581), wk =   0.0023148
        k(  813) = (  -1.0358882  -0.0575493  -0.0727581), wk =   0.0023148
        k(  814) = (  -0.5179441   0.4028454  -0.0485054), wk =   0.0023148
        k(  815) = (  -0.2877467   0.6330428  -0.0485054), wk =   0.0023148
        k(  816) = (  -0.1726480   0.7481415  -0.0485054), wk =   0.0023148
        k(  817) = (  -0.0575493   0.8632402  -0.0485054), wk =   0.0023148
        k(  818) = (   0.0575493   0.9783389  -0.0485054), wk =   0.0023148
        k(  819) = (  -1.2085363  -0.2877467  -0.0485054), wk =   0.0023148
        k(  820) = (   0.0000000   0.8632402  -0.0242527), wk =   0.0011574
        k(  821) = (   0.1150987   0.9783389  -0.0242527), wk =   0.0023148
        k(  822) = (  -1.1509869  -0.2877467  -0.0242527), wk =   0.0023148
        k(  823) = (  -1.0358882  -0.1726480  -0.0242527), wk =   0.0023148
        k(  824) = (  -0.9207895  -0.0575493  -0.0242527), wk =   0.0023148
        k(  825) = (  -0.4028454   0.4028454   0.0000000), wk =   0.0005787
        k(  826) = (  -0.2877467   0.5179441   0.0000000), wk =   0.0011574
        k(  827) = (  -0.1726480   0.6330428   0.0000000), wk =   0.0011574
        k(  828) = (  -0.0575493   0.7481415   0.0000000), wk =   0.0011574
        k(  829) = (   0.0575493   0.8632402   0.0000000), wk =   0.0011574
        k(  830) = (   0.1726480   0.9783389   0.0000000), wk =   0.0011574
        k(  831) = (  -1.0934376  -0.2877467   0.0000000), wk =   0.0005787
        k(  832) = (  -0.0000000  -0.0000000   0.3880431), wk =   0.0005787
        k(  833) = (   0.0575493  -0.0000000   0.4122958), wk =   0.0011574
        k(  834) = (   0.0000000  -0.1150987   0.4365485), wk =   0.0023148
        k(  835) = (   0.0575493  -0.1150987   0.4608012), wk =   0.0023148
        k(  836) = (   0.1726480  -0.0000000   0.4608012), wk =   0.0011574
        k(  837) = (  -1.3811843  -0.2301974  -0.0970108), wk =   0.0023148
        k(  838) = (  -1.2660856  -0.1150987  -0.0970108), wk =   0.0023148
        k(  839) = (  -1.3236349  -0.2301974  -0.0727581), wk =   0.0023148
        k(  840) = (  -1.2085363  -0.1150987  -0.0727581), wk =   0.0023148
        k(  841) = (  -1.0934376   0.0000000  -0.0727581), wk =   0.0011574
        k(  842) = (   0.0000000   1.0358882  -0.0485054), wk =   0.0023148
        k(  843) = (  -1.2660856  -0.2301974  -0.0485054), wk =   0.0046296
        k(  844) = (   0.0575493   1.0358882  -0.0242527), wk =   0.0023148
        k(  845) = (  -1.2085363  -0.2301974  -0.0242527), wk =   0.0023148
        k(  846) = (  -1.0934376  -0.1150987  -0.0242527), wk =   0.0023148
        k(  847) = (  -0.9783389   0.0000000  -0.0242527), wk =   0.0011574
        k(  848) = (   0.0000000   0.9207895   0.0000000), wk =   0.0011574
        k(  849) = (   0.1150987   1.0358882   0.0000000), wk =   0.0023148
        k(  850) = (  -1.1509869  -0.2301974   0.0000000), wk =   0.0011574
        k(  851) = (   0.5179441   0.5179441   0.4365485), wk =   0.0011574
        k(  852) = (   0.6330428   0.6330428   0.4365485), wk =   0.0011574
        k(  853) = (   0.9783389   0.9783389   0.4365485), wk =   0.0011574
        k(  854) = (   1.0934376   1.0934376   0.4365485), wk =   0.0011574
        k(  855) = (  -0.1726480  -0.1726480   0.4365485), wk =   0.0011574
        k(  856) = (  -0.0575493  -0.0575493   0.4365485), wk =   0.0011574
        k(  857) = (   0.0000000  -0.0575493   0.4608012), wk =   0.0011574
        k(  858) = (   0.6330428   0.5179441   0.4850538), wk =   0.0023148
        k(  859) = (   0.7481415   0.6330428   0.4850538), wk =   0.0011574
        k(  860) = (   0.9783389   0.8632402   0.4850538), wk =   0.0023148
        k(  861) = (   1.0934376   0.9783389   0.4850538), wk =   0.0023148
        k(  862) = (   1.2085363   1.0934376   0.4850538), wk =   0.0023148
        k(  863) = (  -0.0575493  -0.1726480   0.4850538), wk =   0.0023148
        k(  864) = (   0.0575493  -0.0575493   0.4850538), wk =   0.0011574
        k(  865) = (  -1.3811843  -0.1726480  -0.0727581), wk =   0.0011574
        k(  866) = (  -1.2660856  -0.0575493  -0.0727581), wk =   0.0023148
        k(  867) = (  -0.6330428   0.5179441  -0.0485054), wk =   0.0023148
        k(  868) = (  -0.4028454   0.7481415  -0.0485054), wk =   0.0023148
        k(  869) = (  -0.2877467   0.8632402  -0.0485054), wk =   0.0023148
        k(  870) = (  -0.1726480   0.9783389  -0.0485054), wk =   0.0023148
        k(  871) = (  -0.0575493   1.0934376  -0.0485054), wk =   0.0023148
        k(  872) = (  -1.3236349  -0.1726480  -0.0485054), wk =   0.0023148
        k(  873) = (   0.0000000   1.0934376  -0.0242527), wk =   0.0011574
        k(  874) = (  -1.2660856  -0.1726480  -0.0242527), wk =   0.0023148
        k(  875) = (  -1.1509869  -0.0575493  -0.0242527), wk =   0.0023148
        k(  876) = (  -0.5179441   0.5179441   0.0000000), wk =   0.0005787
        k(  877) = (  -0.4028454   0.6330428   0.0000000), wk =   0.0011574
        k(  878) = (  -0.2877467   0.7481415   0.0000000), wk =   0.0011574
        k(  879) = (  -0.1726480   0.8632402   0.0000000), wk =   0.0011574
        k(  880) = (  -0.0575493   0.9783389   0.0000000), wk =   0.0011574
        k(  881) = (   0.0575493   1.0934376   0.0000000), wk =   0.0011574
        k(  882) = (  -1.2085363  -0.1726480   0.0000000), wk =   0.0005787
        k(  883) = (   0.0000000   0.0000000   0.4850538), wk =   0.0005787
        k(  884) = (   0.0575493   0.0000000   0.5093065), wk =   0.0011574
        k(  885) = (  -1.3811843  -0.1150987  -0.0485054), wk =   0.0023148
        k(  886) = (  -1.3236349  -0.1150987  -0.0242527), wk =   0.0023148
[...]
    10.2454  11.3423  12.0875  12.9898  14.2073  14.4527  14.7737  14.9861
    15.3517  15.9303  16.0556  16.5539  17.2770  18.4761  19.1060  19.4641
    19.7689  21.3511  23.1303  23.3959  23.6295  24.9217  25.2398  25.5634
    25.8691  27.2088  28.8394  29.1572  29.5550  30.2303  31.0133  31.4199
    31.7588  32.8607  33.2853  33.7998  33.9562  34.4370  35.3316  35.8443
    36.3888  36.4886  36.9818  37.5694  37.8858  38.2545  38.4608  39.5204
    40.2368  40.6446  41.1391  41.8616  41.9069  42.6520  42.9947  43.0347

     occupation numbers 
     1.0000   1.0000   1.0000   1.0000   1.0000   1.0000   1.0000   1.0000
     1.0000   1.0000   1.0000   1.0000   1.0000   1.0000   1.0000   1.0000
     1.0000   1.0000   1.0000   1.0000   1.0000   1.0000   1.0000   1.0000
     1.0000   1.0000   1.0000  -0.0159   0.0000   0.0000   0.0000   0.0000
     0.0000   0.0000   0.0000   0.0000   0.0000   0.0000   0.0000   0.0000
     0.0000   0.0000   0.0000   0.0000   0.0000   0.0000   0.0000   0.0000
     0.0000   0.0000   0.0000   0.0000   0.0000   0.0000   0.0000   0.0000
     0.0000   0.0000   0.0000   0.0000   0.0000   0.0000   0.0000   0.0000
     0.0000   0.0000   0.0000   0.0000   0.0000   0.0000   0.0000   0.0000
     0.0000   0.0000   0.0000   0.0000   0.0000   0.0000   0.0000   0.0000

          k =-0.0575-0.0575 0.5336 (  6324 PWs)   bands (ev):

   -72.2328 -72.2240 -38.0112 -38.0098 -37.9981 -37.9840 -37.9460 -37.9446
   -28.8075  -9.8271  -9.8270  -9.8152  -0.2537   1.0311   6.2953   7.6078
     7.6438   8.1342   8.3761   8.4343   8.4614   9.4676  10.2269  10.6545
    10.6622  11.1865  11.9254  13.1827  13.9028  14.3478  14.8082  14.8953
    15.6035  15.9816  16.3232  16.4299  17.7055  18.0167  18.0604  18.5930
    19.1100  23.1418  23.4793  23.6770  24.2609  24.7484  24.7810  24.9649
    25.2673  26.3042  28.2553  28.4863  30.1501  30.2832  31.5150  31.6781
    32.2791  33.0157  34.1674  34.1787  35.0205  35.2779  35.4683  35.7338
    36.2199  36.5721  36.8944  37.2374  37.4126  38.1647  38.4723  38.8570
    39.4163  40.1922  40.9533  42.1457  42.5014  42.8969  43.4002  43.4487

     occupation numbers 
     1.0000   1.0000   1.0000   1.0000   1.0000   1.0000   1.0000   1.0000
     1.0000   1.0000   1.0000   1.0000   1.0000   1.0000   1.0000   1.0000
     1.0000   1.0000   1.0000   1.0000   1.0000   1.0000   1.0000   1.0000
     1.0000   1.0000   1.0000   0.0000   0.0000   0.0000   0.0000   0.0000
     0.0000   0.0000   0.0000   0.0000   0.0000   0.0000   0.0000   0.0000
     0.0000   0.0000   0.0000   0.0000   0.0000   0.0000   0.0000   0.0000
     0.0000   0.0000   0.0000   0.0000   0.0000   0.0000   0.0000   0.0000
     0.0000   0.0000   0.0000   0.0000   0.0000   0.0000   0.0000   0.0000
     0.0000   0.0000   0.0000   0.0000   0.0000   0.0000   0.0000   0.0000
     0.0000   0.0000   0.0000   0.0000   0.0000   0.0000   0.0000   0.0000

          k =-1.3812-0.0575-0.0243 (  6314 PWs)   bands (ev):

   -72.2329 -72.2240 -38.0108 -38.0108 -37.9982 -37.9839 -37.9450 -37.9449
   -28.8075  -9.8271  -9.8264  -9.8154  -0.2465   1.0087   6.2876   7.6301
     7.6357   8.1250   8.3710   8.4461   8.4605   9.4593  10.2382  10.6908
    10.7204  11.1620  12.0000  13.0796  13.8741  14.2935  14.8964  14.9214
    15.6090  16.0149  16.3778  16.4005  17.7890  17.8386  18.0044  18.6379
    18.9215  23.4668  23.4981  23.7091  24.4042  24.6225  24.7163  24.8865
    25.1599  26.1208  28.1681  28.5839  30.4476  30.5142  31.4016  31.4465
    32.0997  33.0933  34.2130  34.4793  34.9699  35.3804  35.5312  35.9384
    36.2537  36.4641  36.6826  37.2621  37.3407  38.1676  38.2113  38.7402
    39.2898  40.4391  40.9709  42.1586  42.4015  42.5701  43.5604  43.6857

     occupation numbers 
     1.0000   1.0000   1.0000   1.0000   1.0000   1.0000   1.0000   1.0000
     1.0000   1.0000   1.0000   1.0000   1.0000   1.0000   1.0000   1.0000
     1.0000   1.0000   1.0000   1.0000   1.0000   1.0000   1.0000   1.0000
     1.0000   1.0000   1.0000   0.0000   0.0000   0.0000   0.0000   0.0000
     0.0000   0.0000   0.0000   0.0000   0.0000   0.0000   0.0000   0.0000
     0.0000   0.0000   0.0000   0.0000   0.0000   0.0000   0.0000   0.0000
     0.0000   0.0000   0.0000   0.0000   0.0000   0.0000   0.0000   0.0000
     0.0000   0.0000   0.0000   0.0000   0.0000   0.0000   0.0000   0.0000
     0.0000   0.0000   0.0000   0.0000   0.0000   0.0000   0.0000   0.0000
     0.0000   0.0000   0.0000   0.0000   0.0000   0.0000   0.0000   0.0000

          k =-0.6330 0.6330-0.0000 (  6350 PWs)   bands (ev):

   -72.2285 -72.2283 -38.0195 -38.0183 -37.9909 -37.9908 -37.9396 -37.9384
   -28.8050  -9.8566  -9.8545  -9.8038  -0.0689   2.0583   6.4280   6.9475
     7.8140   7.9650   8.6102   8.8121   8.9247   9.1630   9.2636   9.8169
     9.9224  10.1857  11.1222  11.3917  11.7162  13.5583  15.7359  16.1561
    16.6102  16.7845  17.2012  17.2223  17.5115  19.3480  20.4042  21.1927
    21.2691  21.9897  22.8223  24.2996  24.3532  24.3620  25.4096  26.0272
    27.0026  27.5776  27.8671  28.2562  29.0144  29.7245  29.8747  30.6195
    31.5740  31.7305  31.9095  32.0616  32.6695  33.0509  33.7327  34.4289
    35.2090  36.5768  37.2126  37.2772  37.6890  38.3560  38.8102  40.0162
    40.2696  40.5186  41.0232  41.3483  41.5403  41.8734  42.6732  43.1665

     occupation numbers 
     1.0000   1.0000   1.0000   1.0000   1.0000   1.0000   1.0000   1.0000
     1.0000   1.0000   1.0000   1.0000   1.0000   1.0000   1.0000   1.0000
     1.0000   1.0000   1.0000   1.0000   1.0000   1.0000   1.0000   1.0000
     1.0000   1.0000   1.0000   1.0000   1.0000   0.0000   0.0000   0.0000
     0.0000   0.0000   0.0000   0.0000   0.0000   0.0000   0.0000   0.0000
     0.0000   0.0000   0.0000   0.0000   0.0000   0.0000   0.0000   0.0000
     0.0000   0.0000   0.0000   0.0000   0.0000   0.0000   0.0000   0.0000
     0.0000   0.0000   0.0000   0.0000   0.0000   0.0000   0.0000   0.0000
     0.0000   0.0000   0.0000   0.0000   0.0000   0.0000   0.0000   0.0000
     0.0000   0.0000   0.0000   0.0000   0.0000   0.0000   0.0000   0.0000

          k =-0.5179 0.7481-0.0000 (  6345 PWs)   bands (ev):

   -72.2286 -72.2282 -38.0178 -38.0144 -37.9913 -37.9905 -37.9433 -37.9401
   -28.8051  -9.8569  -9.8511  -9.8044  -0.0685   1.9737   6.5357   6.9990
     7.6920   7.9516   8.5973   8.8108   8.9124   9.0729   9.2431   9.7414
     9.8605  10.4265  11.4114  11.4160  11.7805  13.6985  15.9424  16.1520
    16.4435  16.6499  17.1335  17.2665  17.4360  19.3719  19.9385  20.9538
    20.9936  21.7433  23.3161  23.8704  24.0885  24.8835  25.3987  26.5529
    27.2911  27.4118  28.0798  28.7841  28.8265  29.5520  29.6339  30.0478
    30.6812  30.9099  32.5220  32.8231  33.0883  33.8849  34.2258  34.4705
    35.5732  36.4604  36.6017  37.6145  38.4186  38.6646  38.7684  39.1509
    39.8856  39.9541  40.3238  41.0474  41.2498  41.6694  43.4034  43.4223

     occupation numbers 
     1.0000   1.0000   1.0000   1.0000   1.0000   1.0000   1.0000   1.0000
     1.0000   1.0000   1.0000   1.0000   1.0000   1.0000   1.0000   1.0000
     1.0000   1.0000   1.0000   1.0000   1.0000   1.0000   1.0000   1.0000
     1.0000   1.0000   1.0000   1.0000   1.0169   0.0000   0.0000   0.0000
     0.0000   0.0000   0.0000   0.0000   0.0000   0.0000   0.0000   0.0000
     0.0000   0.0000   0.0000   0.0000   0.0000   0.0000   0.0000   0.0000
     0.0000   0.0000   0.0000   0.0000   0.0000   0.0000   0.0000   0.0000
     0.0000   0.0000   0.0000   0.0000   0.0000   0.0000   0.0000   0.0000
     0.0000   0.0000   0.0000   0.0000   0.0000   0.0000   0.0000   0.0000
     0.0000   0.0000   0.0000   0.0000   0.0000   0.0000   0.0000   0.0000

          k =-0.4028 0.8632-0.0000 (  6337 PWs)   bands (ev):

   -72.2295 -72.2274 -38.0162 -38.0008 -37.9926 -37.9892 -37.9566 -37.9412
   -28.8056  -9.8545  -9.8446  -9.8064  -0.0765   1.7566   6.8342   7.1260
     7.3665   7.9215   8.4683   8.8911   8.8976   9.0887   9.0935   9.5949
     9.8599  10.9759  11.4899  11.7583  12.3111  14.0215  15.6564  15.9754
    16.2617  16.8526  17.0692  17.2149  17.2730  18.9397  19.3802  20.4941
    20.8702  21.2282  22.7779  24.0860  24.1543  25.3377  25.4528  26.9955
    27.3145  27.6983  28.0918  28.1333  28.4009  29.5477  29.8454  30.4081
    31.2953  31.3811  32.1776  32.8970  33.3325  34.7684  34.8530  35.3734
    35.7637  35.8964  36.8730  36.9024  37.8598  38.1027  39.2176  39.8461
    39.9032  40.0585  40.3382  40.8403  41.1432  42.0170  42.8852  43.4986

     occupation numbers 
     1.0000   1.0000   1.0000   1.0000   1.0000   1.0000   1.0000   1.0000
     1.0000   1.0000   1.0000   1.0000   1.0000   1.0000   1.0000   1.0000
     1.0000   1.0000   1.0000   1.0000   1.0000   1.0000   1.0000   1.0000
     1.0000   1.0000   1.0000   1.0051   0.7061   0.0000   0.0000   0.0000
     0.0000   0.0000   0.0000   0.0000   0.0000   0.0000   0.0000   0.0000
     0.0000   0.0000   0.0000   0.0000   0.0000   0.0000   0.0000   0.0000
     0.0000   0.0000   0.0000   0.0000   0.0000   0.0000   0.0000   0.0000
     0.0000   0.0000   0.0000   0.0000   0.0000   0.0000   0.0000   0.0000
     0.0000   0.0000   0.0000   0.0000   0.0000   0.0000   0.0000   0.0000
     0.0000   0.0000   0.0000   0.0000   0.0000   0.0000   0.0000   0.0000

          k =-0.2877 0.9783-0.0000 (  6364 PWs)   bands (ev):

   -72.2306 -72.2263 -38.0142 -37.9946 -37.9876 -37.9821 -37.9750 -37.9428
   -28.8062  -9.8487  -9.8370  -9.8092  -0.1083   1.4866   6.9176   7.2821
     7.3265   7.9773   8.1789   8.6577   8.8682   9.1990   9.3821   9.6901
     9.8718  11.3342  11.8226  12.1608  13.1258  14.4278  15.1408  15.5289
    15.7545  16.3512  16.8968  17.1948  17.3352  18.8383  19.2179  20.2486
    20.6701  21.0470  21.8714  23.5148  24.2476  25.1474  26.3553  26.5675
    26.5941  27.1313  27.5645  29.1620  29.2253  30.2284  30.3771  31.0163
    31.7854  32.2829  32.6154  32.8096  33.1109  33.8144  34.9939  35.1643
    36.0154  36.2032  37.1846  37.2366  37.9492  38.2175  39.0931  39.6240
    40.0489  40.7510  41.2606  41.3990  41.4500  42.5974  42.9885  43.2608

     occupation numbers 
     1.0000   1.0000   1.0000   1.0000   1.0000   1.0000   1.0000   1.0000
     1.0000   1.0000   1.0000   1.0000   1.0000   1.0000   1.0000   1.0000
     1.0000   1.0000   1.0000   1.0000   1.0000   1.0000   1.0000   1.0000
     1.0000   1.0000   1.0000   1.0115  -0.0399   0.0000   0.0000   0.0000
     0.0000   0.0000   0.0000   0.0000   0.0000   0.0000   0.0000   0.0000
     0.0000   0.0000   0.0000   0.0000   0.0000   0.0000   0.0000   0.0000
     0.0000   0.0000   0.0000   0.0000   0.0000   0.0000   0.0000   0.0000
     0.0000   0.0000   0.0000   0.0000   0.0000   0.0000   0.0000   0.0000
     0.0000   0.0000   0.0000   0.0000   0.0000   0.0000   0.0000   0.0000
     0.0000   0.0000   0.0000   0.0000   0.0000   0.0000   0.0000   0.0000

          k =-0.1726 1.0934-0.0000 (  6346 PWs)   bands (ev):

   -72.2317 -72.2251 -38.0120 -37.9963 -37.9931 -37.9858 -37.9635 -37.9444
   -28.8069  -9.8404  -9.8303  -9.8122  -0.1634   1.2399   6.5902   7.4411
     7.8115   7.8868   8.1536   8.4040   8.6401   9.4508   9.7916   9.9212
    10.0704  11.3913  12.2037  12.6026  13.9690  14.6684  14.8593  15.0297
    15.3756  15.9175  16.2917  16.5686  17.3156  18.8611  19.5798  20.0048
    20.1705  20.5604  22.5471  23.0315  23.7994  24.7394  25.7730  25.9541
    26.4533  27.5263  28.1011  29.5641  29.9027  30.6981  30.8042  30.9405
    31.0419  32.5037  32.9762  33.2468  33.8726  34.2813  35.4777  35.6129
    36.1882  36.4369  36.9776  37.1943  37.9801  38.4449  38.9653  39.5917
    40.3011  40.5057  41.4835  41.5283  41.8163  42.3992  42.8578  42.9994

     occupation numbers 
     1.0000   1.0000   1.0000   1.0000   1.0000   1.0000   1.0000   1.0000
     1.0000   1.0000   1.0000   1.0000   1.0000   1.0000   1.0000   1.0000
     1.0000   1.0000   1.0000   1.0000   1.0000   1.0000   1.0000   1.0000
     1.0000   1.0000   1.0000   0.0979  -0.0005   0.0000   0.0000   0.0000
     0.0000   0.0000   0.0000   0.0000   0.0000   0.0000   0.0000   0.0000
     0.0000   0.0000   0.0000   0.0000   0.0000   0.0000   0.0000   0.0000
     0.0000   0.0000   0.0000   0.0000   0.0000   0.0000   0.0000   0.0000
     0.0000   0.0000   0.0000   0.0000   0.0000   0.0000   0.0000   0.0000
     0.0000   0.0000   0.0000   0.0000   0.0000   0.0000   0.0000   0.0000
     0.0000   0.0000   0.0000   0.0000   0.0000   0.0000   0.0000   0.0000

          k =-0.0575 1.2085-0.0000 (  6332 PWs)   bands (ev):

   -72.2325 -72.2243 -38.0104 -38.0064 -37.9977 -37.9845 -37.9496 -37.9455
   -28.8073  -9.8322  -9.8265  -9.8144  -0.2174   1.0710   6.3725   7.5820
     7.6897   8.2089   8.2328   8.3610   8.4590   9.4778  10.1385  10.2942
    10.4753  11.3220  12.1823  12.9144  14.0884  14.6566  14.7387  14.9599
    15.4252  15.7596  16.0771  16.3621  17.6380  18.3706  18.4211  19.2141
    19.4085  22.2909  23.1284  23.5275  23.7589  24.4351  25.1512  25.5014
    25.6874  27.0340  28.7844  28.7869  29.7679  30.5283  31.1533  31.2262
    31.7466  32.9645  33.7964  34.1612  34.5622  34.8727  35.4659  35.5763
    36.3556  36.8499  37.1051  37.1138  37.7793  37.8951  38.6805  38.8827
    39.8756  40.3810  41.0479  41.9958  42.3184  42.5842  42.5959  43.2499

     occupation numbers 
     1.0000   1.0000   1.0000   1.0000   1.0000   1.0000   1.0000   1.0000
     1.0000   1.0000   1.0000   1.0000   1.0000   1.0000   1.0000   1.0000
     1.0000   1.0000   1.0000   1.0000   1.0000   1.0000   1.0000   1.0000
     1.0000   1.0000   1.0000  -0.0061   0.0000   0.0000   0.0000   0.0000
     0.0000   0.0000   0.0000   0.0000   0.0000   0.0000   0.0000   0.0000
     0.0000   0.0000   0.0000   0.0000   0.0000   0.0000   0.0000   0.0000
     0.0000   0.0000   0.0000   0.0000   0.0000   0.0000   0.0000   0.0000
     0.0000   0.0000   0.0000   0.0000   0.0000   0.0000   0.0000   0.0000
     0.0000   0.0000   0.0000   0.0000   0.0000   0.0000   0.0000   0.0000
     0.0000   0.0000   0.0000   0.0000   0.0000   0.0000   0.0000   0.0000

          k =-1.3236-0.0575-0.0000 (  6316 PWs)   bands (ev):

   -72.2328 -72.2240 -38.0112 -38.0098 -37.9981 -37.9839 -37.9460 -37.9446
   -28.8075  -9.8271  -9.8269  -9.8153  -0.2400   1.0112   6.2979   7.6167
     7.6526   8.1346   8.3824   8.4208   8.4425   9.4623  10.2270  10.6545
    10.6611  11.1858  12.0680  13.0231  13.9126  14.3366  14.8575  14.9564
    15.5884  15.9701  16.3110  16.4181  17.6515  17.9965  18.0545  18.7867
    18.9121  23.2121  23.4743  23.7570  24.3080  24.7398  24.8319  24.8460
    25.0903  26.2923  28.2580  28.6390  30.3758  30.6658  31.2947  31.3161
    32.0649  33.0826  34.2449  34.3399  34.9131  35.5202  35.5933  35.7358
    36.1109  36.5397  36.6888  37.1980  37.4737  37.9967  38.3596  38.9673
    39.4128  40.1662  40.9319  42.1840  42.3530  42.9188  43.3946  43.4311

     occupation numbers 
     1.0000   1.0000   1.0000   1.0000   1.0000   1.0000   1.0000   1.0000
     1.0000   1.0000   1.0000   1.0000   1.0000   1.0000   1.0000   1.0000
     1.0000   1.0000   1.0000   1.0000   1.0000   1.0000   1.0000   1.0000
     1.0000   1.0000   1.0000   0.0000   0.0000   0.0000   0.0000   0.0000
     0.0000   0.0000   0.0000   0.0000   0.0000   0.0000   0.0000   0.0000
     0.0000   0.0000   0.0000   0.0000   0.0000   0.0000   0.0000   0.0000
     0.0000   0.0000   0.0000   0.0000   0.0000   0.0000   0.0000   0.0000
     0.0000   0.0000   0.0000   0.0000   0.0000   0.0000   0.0000   0.0000
     0.0000   0.0000   0.0000   0.0000   0.0000   0.0000   0.0000   0.0000
     0.0000   0.0000   0.0000   0.0000   0.0000   0.0000   0.0000   0.0000

          k =-1.3812-1.3812-0.5821 (  6310 PWs)   bands (ev):

   -72.2329 -72.2240 -38.0110 -38.0110 -37.9982 -37.9838 -37.9447 -37.9447
   -28.8075  -9.8264  -9.8264  -9.8155  -0.2460   0.9959   6.2786   7.6357
     7.6357   8.1153   8.3611   8.4680   8.4680   9.4535  10.2496  10.7588
    10.7588  11.1273  12.0097  13.0482  13.8445  14.2400  14.9369  14.9369
    15.6135  16.0859  16.4125  16.4125  17.7745  17.7745  17.9601  18.6616
    18.7382  23.4604  23.9012  23.9012  24.1994  24.4989  24.6425  25.0477
    25.0477  25.8760  28.0792  28.6137  30.6589  30.6589  31.3381  31.3381
    32.0096  33.1469  34.4401  34.4401  34.9531  35.4502  35.8128  35.8235
    36.3997  36.4297  36.4297  37.3350  37.3350  38.1059  38.1059  38.5556
    39.1007  40.9420  40.9420  42.0847  42.1468  42.3646  43.6848  43.9142

     occupation numbers 
     1.0000   1.0000   1.0000   1.0000   1.0000   1.0000   1.0000   1.0000
     1.0000   1.0000   1.0000   1.0000   1.0000   1.0000   1.0000   1.0000
     1.0000   1.0000   1.0000   1.0000   1.0000   1.0000   1.0000   1.0000
     1.0000   1.0000   1.0000   0.0000   0.0000   0.0000   0.0000   0.0000
     0.0000   0.0000   0.0000   0.0000   0.0000   0.0000   0.0000   0.0000
     0.0000   0.0000   0.0000   0.0000   0.0000   0.0000   0.0000   0.0000
     0.0000   0.0000   0.0000   0.0000   0.0000   0.0000   0.0000   0.0000
     0.0000   0.0000   0.0000   0.0000   0.0000   0.0000   0.0000   0.0000
     0.0000   0.0000   0.0000   0.0000   0.0000   0.0000   0.0000   0.0000
     0.0000   0.0000   0.0000   0.0000   0.0000   0.0000   0.0000   0.0000

     the Fermi energy is    12.4505 ev
     (compare with:    12.4474 eV, computed in scf)

     Writing all to output data dir ./outputs/capd2as2.save/ :
     XML data file, pseudopotentials, collected wavefunctions

     init_run     :      1.44s CPU      1.73s WALL (       1 calls)
     electrons    :  26544.27s CPU  28149.17s WALL (       1 calls)

     Called by init_run:
     wfcinit      :      0.00s CPU      0.00s WALL (       1 calls)
     wfcinit:atom :      0.42s CPU      0.47s WALL (     904 calls)
     wfcinit:wfcr :    279.09s CPU    294.84s WALL (     904 calls)
     potinit      :      0.63s CPU      0.67s WALL (       1 calls)
     hinit0       :      0.39s CPU      0.42s WALL (       1 calls)

     Called by electrons:
     c_bands      :  26540.71s CPU  28145.25s WALL (       1 calls)
     v_of_rho     :      0.12s CPU      0.15s WALL (       1 calls)
     v_h          :      0.01s CPU      0.01s WALL (       1 calls)
     v_xc         :      0.11s CPU      0.14s WALL (       1 calls)
     newd         :      0.13s CPU      0.30s WALL (       1 calls)
     PAW_pot      :      0.29s CPU      0.29s WALL (       1 calls)

     Called by c_bands:
     init_us_2    :      0.94s CPU      1.07s WALL (     904 calls)
     ccgdiagg     :  24850.47s CPU  26354.25s WALL (    5424 calls)
     wfcrot       :   1676.19s CPU   1773.37s WALL (    5424 calls)

     Called by sum_band:

     Called by *cgdiagg:
     h_psi        :  19370.20s CPU  20547.92s WALL ( 5301715 calls)
     s_psi        :   1877.03s CPU   2010.23s WALL (10598006 calls)

     Called by h_psi:
     h_psi:calbec :   3394.73s CPU   3623.02s WALL ( 5301715 calls)
     vloc_psi     :  14690.86s CPU  15557.60s WALL ( 5301715 calls)
     add_vuspsi   :   1176.99s CPU   1260.49s WALL ( 5301715 calls)
     hs_1psi      :  19082.24s CPU  20217.23s WALL ( 5296291 calls)
     s_1psi       :   2371.02s CPU   2520.79s WALL ( 5296291 calls)

     General routines
     calbec       :   4691.33s CPU   5031.23s WALL (10598006 calls)
     fft          :      0.27s CPU      0.29s WALL (      13 calls)
     ffts         :      0.21s CPU      0.21s WALL (       1 calls)
     fftw         :   9286.14s CPU   9855.47s WALL (11460422 calls)
     interpolate  :      0.21s CPU      0.22s WALL (       1 calls)
     davcio       :     16.37s CPU     41.95s WALL (    1808 calls)

     Parallel routines

     PAW routines
     PAW_pot      :      0.29s CPU      0.29s WALL (       1 calls)

     PWSCF        :      7h23m CPU      7h51m WALL


   This run was terminated on:  17: 1:49   9Nov2025            

=------------------------------------------------------------------------------=
   JOB DONE.
=------------------------------------------------------------------------------=
